<?xml version="1.0"?>
<VTKFile type="UnstructuredGrid"  version="0.1"  >
<UnstructuredGrid>
<Piece  NumberOfPoints="2601" NumberOfCells="5000">
<Points>
<DataArray  type="Float64"  NumberOfComponents="3"  format="ascii">-1 0 0  -0.96 0 0  -0.92 0 0  -0.88 0 0  -0.84 0 0  -0.8 0 0  -0.76 0 0  -0.72 0 0  -0.6799999999999999 0 0  -0.64 0 0  -0.6 0 0  -0.5600000000000001 0 0  -0.52 0 0  -0.48 0 0  -0.4399999999999999 0 0  -0.4 0 0  -0.36 0 0  -0.32 0 0  -0.28 0 0  -0.24 0 0  -0.2 0 0  -0.16 0 0  -0.12 0 0  -0.07999999999999996 0 0  -0.04000000000000004 0 0  0 0 0  0.04000000000000004 0 0  0.08000000000000007 0 0  0.1200000000000001 0 0  0.1599999999999999 0 0  0.2 0 0  0.24 0 0  0.28 0 0  0.3200000000000001 0 0  0.3600000000000001 0 0  0.3999999999999999 0 0  0.4399999999999999 0 0  0.48 0 0  0.52 0 0  0.5600000000000001 0 0  0.6000000000000001 0 0  0.6399999999999999 0 0  0.6799999999999999 0 0  0.72 0 0  0.76 0 0  0.8 0 0  0.8400000000000001 0 0  0.8799999999999999 0 0  0.9199999999999999 0 0  0.96 0 0  1 0 0  -1 0.016 0  -0.96 0.016 0  -0.92 0.016 0  -0.88 0.016 0  -0.84 0.016 0  -0.8 0.016 0  -0.76 0.016 0  -0.72 0.016 0  -0.6799999999999999 0.016 0  -0.64 0.016 0  -0.6 0.016 0  -0.5600000000000001 0.016 0  -0.52 0.016 0  -0.48 0.016 0  -0.4399999999999999 0.016 0  -0.4 0.016 0  -0.36 0.016 0  -0.32 0.016 0  -0.28 0.016 0  -0.24 0.016 0  -0.2 0.016 0  -0.16 0.016 0  -0.12 0.016 0  -0.07999999999999996 0.016 0  -0.04000000000000004 0.016 0  0 0.016 0  0.04000000000000004 0.016 0  0.08000000000000007 0.016 0  0.1200000000000001 0.016 0  0.1599999999999999 0.016 0  0.2 0.016 0  0.24 0.016 0  0.28 0.016 0  0.3200000000000001 0.016 0  0.3600000000000001 0.016 0  0.3999999999999999 0.016 0  0.4399999999999999 0.016 0  0.48 0.016 0  0.52 0.016 0  0.5600000000000001 0.016 0  0.6000000000000001 0.016 0  0.6399999999999999 0.016 0  0.6799999999999999 0.016 0  0.72 0.016 0  0.76 0.016 0  0.8 0.016 0  0.8400000000000001 0.016 0  0.8799999999999999 0.016 0  0.9199999999999999 0.016 0  0.96 0.016 0  1 0.016 0  -1 0.032 0  -0.96 0.032 0  -0.92 0.032 0  -0.88 0.032 0  -0.84 0.032 0  -0.8 0.032 0  -0.76 0.032 0  -0.72 0.032 0  -0.6799999999999999 0.032 0  -0.64 0.032 0  -0.6 0.032 0  -0.5600000000000001 0.032 0  -0.52 0.032 0  -0.48 0.032 0  -0.4399999999999999 0.032 0  -0.4 0.032 0  -0.36 0.032 0  -0.32 0.032 0  -0.28 0.032 0  -0.24 0.032 0  -0.2 0.032 0  -0.16 0.032 0  -0.12 0.032 0  -0.07999999999999996 0.032 0  -0.04000000000000004 0.032 0  0 0.032 0  0.04000000000000004 0.032 0  0.08000000000000007 0.032 0  0.1200000000000001 0.032 0  0.1599999999999999 0.032 0  0.2 0.032 0  0.24 0.032 0  0.28 0.032 0  0.3200000000000001 0.032 0  0.3600000000000001 0.032 0  0.3999999999999999 0.032 0  0.4399999999999999 0.032 0  0.48 0.032 0  0.52 0.032 0  0.5600000000000001 0.032 0  0.6000000000000001 0.032 0  0.6399999999999999 0.032 0  0.6799999999999999 0.032 0  0.72 0.032 0  0.76 0.032 0  0.8 0.032 0  0.8400000000000001 0.032 0  0.8799999999999999 0.032 0  0.9199999999999999 0.032 0  0.96 0.032 0  1 0.032 0  -1 0.04800000000000001 0  -0.96 0.04800000000000001 0  -0.92 0.04800000000000001 0  -0.88 0.04800000000000001 0  -0.84 0.04800000000000001 0  -0.8 0.04800000000000001 0  -0.76 0.04800000000000001 0  -0.72 0.04800000000000001 0  -0.6799999999999999 0.04800000000000001 0  -0.64 0.04800000000000001 0  -0.6 0.04800000000000001 0  -0.5600000000000001 0.04800000000000001 0  -0.52 0.04800000000000001 0  -0.48 0.04800000000000001 0  -0.4399999999999999 0.04800000000000001 0  -0.4 0.04800000000000001 0  -0.36 0.04800000000000001 0  -0.32 0.04800000000000001 0  -0.28 0.04800000000000001 0  -0.24 0.04800000000000001 0  -0.2 0.04800000000000001 0  -0.16 0.04800000000000001 0  -0.12 0.04800000000000001 0  -0.07999999999999996 0.04800000000000001 0  -0.04000000000000004 0.04800000000000001 0  0 0.04800000000000001 0  0.04000000000000004 0.04800000000000001 0  0.08000000000000007 0.04800000000000001 0  0.1200000000000001 0.04800000000000001 0  0.1599999999999999 0.04800000000000001 0  0.2 0.04800000000000001 0  0.24 0.04800000000000001 0  0.28 0.04800000000000001 0  0.3200000000000001 0.04800000000000001 0  0.3600000000000001 0.04800000000000001 0  0.3999999999999999 0.04800000000000001 0  0.4399999999999999 0.04800000000000001 0  0.48 0.04800000000000001 0  0.52 0.04800000000000001 0  0.5600000000000001 0.04800000000000001 0  0.6000000000000001 0.04800000000000001 0  0.6399999999999999 0.04800000000000001 0  0.6799999999999999 0.04800000000000001 0  0.72 0.04800000000000001 0  0.76 0.04800000000000001 0  0.8 0.04800000000000001 0  0.8400000000000001 0.04800000000000001 0  0.8799999999999999 0.04800000000000001 0  0.9199999999999999 0.04800000000000001 0  0.96 0.04800000000000001 0  1 0.04800000000000001 0  -1 0.064 0  -0.96 0.064 0  -0.92 0.064 0  -0.88 0.064 0  -0.84 0.064 0  -0.8 0.064 0  -0.76 0.064 0  -0.72 0.064 0  -0.6799999999999999 0.064 0  -0.64 0.064 0  -0.6 0.064 0  -0.5600000000000001 0.064 0  -0.52 0.064 0  -0.48 0.064 0  -0.4399999999999999 0.064 0  -0.4 0.064 0  -0.36 0.064 0  -0.32 0.064 0  -0.28 0.064 0  -0.24 0.064 0  -0.2 0.064 0  -0.16 0.064 0  -0.12 0.064 0  -0.07999999999999996 0.064 0  -0.04000000000000004 0.064 0  0 0.064 0  0.04000000000000004 0.064 0  0.08000000000000007 0.064 0  0.1200000000000001 0.064 0  0.1599999999999999 0.064 0  0.2 0.064 0  0.24 0.064 0  0.28 0.064 0  0.3200000000000001 0.064 0  0.3600000000000001 0.064 0  0.3999999999999999 0.064 0  0.4399999999999999 0.064 0  0.48 0.064 0  0.52 0.064 0  0.5600000000000001 0.064 0  0.6000000000000001 0.064 0  0.6399999999999999 0.064 0  0.6799999999999999 0.064 0  0.72 0.064 0  0.76 0.064 0  0.8 0.064 0  0.8400000000000001 0.064 0  0.8799999999999999 0.064 0  0.9199999999999999 0.064 0  0.96 0.064 0  1 0.064 0  -1 0.08 0  -0.96 0.08 0  -0.92 0.08 0  -0.88 0.08 0  -0.84 0.08 0  -0.8 0.08 0  -0.76 0.08 0  -0.72 0.08 0  -0.6799999999999999 0.08 0  -0.64 0.08 0  -0.6 0.08 0  -0.5600000000000001 0.08 0  -0.52 0.08 0  -0.48 0.08 0  -0.4399999999999999 0.08 0  -0.4 0.08 0  -0.36 0.08 0  -0.32 0.08 0  -0.28 0.08 0  -0.24 0.08 0  -0.2 0.08 0  -0.16 0.08 0  -0.12 0.08 0  -0.07999999999999996 0.08 0  -0.04000000000000004 0.08 0  0 0.08 0  0.04000000000000004 0.08 0  0.08000000000000007 0.08 0  0.1200000000000001 0.08 0  0.1599999999999999 0.08 0  0.2 0.08 0  0.24 0.08 0  0.28 0.08 0  0.3200000000000001 0.08 0  0.3600000000000001 0.08 0  0.3999999999999999 0.08 0  0.4399999999999999 0.08 0  0.48 0.08 0  0.52 0.08 0  0.5600000000000001 0.08 0  0.6000000000000001 0.08 0  0.6399999999999999 0.08 0  0.6799999999999999 0.08 0  0.72 0.08 0  0.76 0.08 0  0.8 0.08 0  0.8400000000000001 0.08 0  0.8799999999999999 0.08 0  0.9199999999999999 0.08 0  0.96 0.08 0  1 0.08 0  -1 0.09600000000000002 0  -0.96 0.09600000000000002 0  -0.92 0.09600000000000002 0  -0.88 0.09600000000000002 0  -0.84 0.09600000000000002 0  -0.8 0.09600000000000002 0  -0.76 0.09600000000000002 0  -0.72 0.09600000000000002 0  -0.6799999999999999 0.09600000000000002 0  -0.64 0.09600000000000002 0  -0.6 0.09600000000000002 0  -0.5600000000000001 0.09600000000000002 0  -0.52 0.09600000000000002 0  -0.48 0.09600000000000002 0  -0.4399999999999999 0.09600000000000002 0  -0.4 0.09600000000000002 0  -0.36 0.09600000000000002 0  -0.32 0.09600000000000002 0  -0.28 0.09600000000000002 0  -0.24 0.09600000000000002 0  -0.2 0.09600000000000002 0  -0.16 0.09600000000000002 0  -0.12 0.09600000000000002 0  -0.07999999999999996 0.09600000000000002 0  -0.04000000000000004 0.09600000000000002 0  0 0.09600000000000002 0  0.04000000000000004 0.09600000000000002 0  0.08000000000000007 0.09600000000000002 0  0.1200000000000001 0.09600000000000002 0  0.1599999999999999 0.09600000000000002 0  0.2 0.09600000000000002 0  0.24 0.09600000000000002 0  0.28 0.09600000000000002 0  0.3200000000000001 0.09600000000000002 0  0.3600000000000001 0.09600000000000002 0  0.3999999999999999 0.09600000000000002 0  0.4399999999999999 0.09600000000000002 0  0.48 0.09600000000000002 0  0.52 0.09600000000000002 0  0.5600000000000001 0.09600000000000002 0  0.6000000000000001 0.09600000000000002 0  0.6399999999999999 0.09600000000000002 0  0.6799999999999999 0.09600000000000002 0  0.72 0.09600000000000002 0  0.76 0.09600000000000002 0  0.8 0.09600000000000002 0  0.8400000000000001 0.09600000000000002 0  0.8799999999999999 0.09600000000000002 0  0.9199999999999999 0.09600000000000002 0  0.96 0.09600000000000002 0  1 0.09600000000000002 0  -1 0.112 0  -0.96 0.112 0  -0.92 0.112 0  -0.88 0.112 0  -0.84 0.112 0  -0.8 0.112 0  -0.76 0.112 0  -0.72 0.112 0  -0.6799999999999999 0.112 0  -0.64 0.112 0  -0.6 0.112 0  -0.5600000000000001 0.112 0  -0.52 0.112 0  -0.48 0.112 0  -0.4399999999999999 0.112 0  -0.4 0.112 0  -0.36 0.112 0  -0.32 0.112 0  -0.28 0.112 0  -0.24 0.112 0  -0.2 0.112 0  -0.16 0.112 0  -0.12 0.112 0  -0.07999999999999996 0.112 0  -0.04000000000000004 0.112 0  0 0.112 0  0.04000000000000004 0.112 0  0.08000000000000007 0.112 0  0.1200000000000001 0.112 0  0.1599999999999999 0.112 0  0.2 0.112 0  0.24 0.112 0  0.28 0.112 0  0.3200000000000001 0.112 0  0.3600000000000001 0.112 0  0.3999999999999999 0.112 0  0.4399999999999999 0.112 0  0.48 0.112 0  0.52 0.112 0  0.5600000000000001 0.112 0  0.6000000000000001 0.112 0  0.6399999999999999 0.112 0  0.6799999999999999 0.112 0  0.72 0.112 0  0.76 0.112 0  0.8 0.112 0  0.8400000000000001 0.112 0  0.8799999999999999 0.112 0  0.9199999999999999 0.112 0  0.96 0.112 0  1 0.112 0  -1 0.128 0  -0.96 0.128 0  -0.92 0.128 0  -0.88 0.128 0  -0.84 0.128 0  -0.8 0.128 0  -0.76 0.128 0  -0.72 0.128 0  -0.6799999999999999 0.128 0  -0.64 0.128 0  -0.6 0.128 0  -0.5600000000000001 0.128 0  -0.52 0.128 0  -0.48 0.128 0  -0.4399999999999999 0.128 0  -0.4 0.128 0  -0.36 0.128 0  -0.32 0.128 0  -0.28 0.128 0  -0.24 0.128 0  -0.2 0.128 0  -0.16 0.128 0  -0.12 0.128 0  -0.07999999999999996 0.128 0  -0.04000000000000004 0.128 0  0 0.128 0  0.04000000000000004 0.128 0  0.08000000000000007 0.128 0  0.1200000000000001 0.128 0  0.1599
[...]
<PointData  Scalars="f_100"> 
<DataArray  type="Float64"  Name="f_100"  format="ascii">6.0000000000000002e-05  5.4212395173726447e-05  5.2812263947265556e-05  5.2152090881165554e-05  5.1588840871763422e-05  5.0888025789684852e-05  4.9947082409531830e-05  4.8719278845895232e-05  4.7195299805620215e-05  4.5399712643079554e-05  4.3388007644056495e-05  4.1239864523900157e-05  3.9048511372869047e-05  3.6908024693455437e-05  3.4901054771011020e-05  3.3088940809763413e-05  3.1503586843760638e-05  3.0124970351772324e-05  2.8758765590365099e-05  2.3352078772369994e-05  1.7101276273535947e-05  1.4253307236008314e-05  1.2282950182599342e-05  1.0748293873018044e-05  9.4572574653588076e-06  8.3072656831664566e-06  7.2440759641675536e-06  6.2468407226098792e-06  5.3272284330964573e-06  4.5561672565156892e-06  4.1834354803921419e-06  5.2407181890572428e-06  6.8719720391877062e-06  6.3187335360233678e-06  5.1587357373483785e-06  3.9715641555883990e-06  2.9446889027793204e-06  2.1189483903373848e-06  1.4844114965041808e-06  1.0138807095483517e-06  6.7579243843863172e-07  4.3988813353953458e-07  2.7980424432658943e-07  1.7402939071404506e-07  1.0590543569230532e-07  6.3096693574152148e-08  3.6821741957970464e-08  2.1037516910779205e-08  1.1655684352823295e-08  5.6911885282693483e-09  0.0000000000000000e+00  6.0000000000000002e-05  5.4486623314087729e-05  5.3079521721423711e-05  5.2415738458836146e-05  5.1850330955840288e-05  5.1147148760762291e-05  5.0202899086999185e-05  4.8970457874590707e-05  4.7440303131051476e-05  4.5636963976923284e-05  4.3616067938358014e-05  4.1457598178241288e-05  3.9255215749647426e-05  3.7103499824999905e-05  3.5085602873592825e-05  3.3263301206311069e-05  3.1668833284763662e-05  3.0282557774935078e-05  2.8896240099275743e-05  2.3960906945485162e-05  1.7950564265779849e-05  1.4962725835616170e-05  1.2888072152425777e-05  1.1275768160234102e-05  9.9222896876248192e-06  8.7185644754889377e-06  7.6065707624960494e-06  6.5633607310817976e-06  5.5995312511090643e-06  4.7851932149062241e-06  4.3681446344858145e-06  5.3024292477738935e-06  6.9076945397116887e-06  6.3570582843828618e-06  5.1912337669532198e-06  3.9972101140205622e-06  2.9641003035346070e-06  2.1331816865099727e-06  1.4945604580860170e-06  1.0209301367928344e-06  6.8056702073898214e-07  4.4304380992349639e-07  2.8184090128443348e-07  1.7531377845017132e-07  1.0669740965225803e-07  6.3574495006468691e-08  3.7103972968329710e-08  2.1200900021851220e-08  1.1748697901555630e-08  5.7445929910054651e-09  0.0000000000000000e+00  6.0000000000000002e-05  5.4756801793470744e-05  5.3345956037811212e-05  5.2680025547935556e-05  5.2112917762919296e-05  5.1407506548811452e-05  5.0459984637555571e-05  4.9222902945309747e-05  4.7686553429088321e-05  4.5875433221421793e-05  4.3845309187237958e-05  4.1676469189145054e-05  3.9463008675143121e-05  3.7300011337282193e-05  3.5271134143528684e-05  3.3438594330499244e-05  3.1834980724407047e-05  3.0441153422670017e-05  2.9038545050692502e-05  2.4517608381847812e-05  1.8793048007276256e-05  1.5670574168350079e-05  1.3498220596637211e-05  1.1811485461316723e-05  1.0397202241430958e-05  9.1404978590589026e-06  7.9798574833516200e-06  6.8903700545412804e-06  5.8816177061227412e-06  5.0228170512590995e-06  4.5586184448574890e-06  5.3806818847231323e-06  6.9499099960035647e-06  6.3976717191226412e-06  5.2245675743328749e-06  4.0232156979572272e-06  2.9837033982500951e-06  2.1475355020200044e-06  1.5047916114233972e-06  1.0280369375481764e-06  6.8538145455096983e-07  4.4622670946160132e-07  2.8389576645671290e-07  1.7661007327195728e-07  1.0749699483701212e-07  6.4057053530191283e-08  3.7389112949968759e-08  2.1366025261526245e-08  1.1842721361206322e-08  5.7983125015546673e-09  0.0000000000000000e+00  6.0000000000000002e-05  5.5022134325291764e-05  5.3611526557275096e-05  5.2944945968650885e-05  5.2376604727536114e-05  5.1669105915877722e-05  5.0718347135209458e-05  4.9476622696630660e-05  4.7934059495257481e-05  4.6115128992600945e-05  4.4075739513488715e-05  4.1896484918566056e-05  3.9671896566667445e-05  3.7497564628644848e-05  3.5457652995033096e-05  3.3614823697719665e-05  3.2002031560038196e-05  3.0600748577196248e-05  2.9185374951288574e-05  2.5029311935169278e-05  1.9607460843278506e-05  1.6373033352602358e-05  1.4111750734392709e-05  1.2354613025813448e-05  1.0881618477118913e-05  9.5729738356988138e-06  8.3640265067247782e-06  7.2280741231849892e-06  6.1737671802729242e-06  5.2693931851981101e-06  4.7556875845037999e-06  5.4735956527470495e-06  6.9987218534223382e-06  6.4406106295166030e-06  5.2587500929907246e-06  4.0495842158989808e-06  3.0034984171100302e-06  2.1620091258367650e-06  1.5151040205020897e-06  1.0352002075550059e-06  6.9023496113651276e-07  4.4943620554124387e-07  2.8596836059023648e-07  1.7791792389407758e-07  1.0830394326587863e-07  6.4544199953205463e-08  3.7677049919151205e-08  2.1532820014894016e-08  1.1937706447324756e-08  5.8523028142620742e-09  0.0000000000000000e+00  6.0000000000000002e-05  5.5282062475305681e-05  5.3876209114734071e-05  5.3210497561326234e-05  5.2641396420417867e-05  5.1931953801889027e-05  5.0977994479322645e-05  4.9731625447077263e-05  4.8182829750714860e-05  4.6356059537899846e-05  4.4307366727167230e-05  4.2117652512009374e-05  3.9881885747527495e-05  3.7696165134219673e-05  3.5645164000357709e-05  3.3791993079671945e-05  3.2169988517473352e-05  3.0761337731622304e-05  2.9336422636465360e-05  2.5502338979526202e-05  2.0383543979368814e-05  1.7067369882493362e-05  1.4727254139197012e-05  1.2904428302506366e-05  1.1375227457765331e-05  1.0015944819473064e-05  8.7592009784973403e-06  7.5767036877205533e-06  6.4762760688663395e-06  5.5252730724075042e-06  4.9600511201900029e-06  5.5798156529875480e-06  7.0542097508296198e-06  6.4859026437312948e-06  5.2937907775778526e-06  4.0763181278927410e-06  3.0234855651080395e-06  2.1766020494354717e-06  1.5254969909999541e-06  1.0424192635892805e-06  6.9512694475277759e-07  4.5267181447453354e-07  2.8805831126347702e-07  1.7923705594388303e-07  1.0911806048604467e-07  6.5035801189938516e-08  3.7967695567727676e-08  2.1701226898113858e-08  1.2033614996207304e-08  5.9065327334836627e-09  0.0000000000000000e+00  6.0000000000000002e-05  5.5536222337911304e-05  5.4139993615311304e-05  5.3476681978892982e-05  5.2907298511955850e-05  5.2196057349060735e-05  5.1238934447087599e-05  4.9987919262588543e-05  4.8432872316100030e-05  4.6598232808170443e-05  4.4540198387602004e-05  4.2339978943526864e-05  4.0092982470293239e-05  3.7895818325800896e-05  3.5833671867635908e-05  3.3970106462864818e-05  3.2338854581458828e-05  3.0922917672970179e-05  2.9491387205444407e-05  2.5942216356215743e-05  2.1117436511606508e-05  1.7751403145103221e-05  1.5343485742489802e-05  1.3460289105057473e-05  1.1877768507571576e-05  1.0469400126665581e-05  9.1655340761215892e-06  7.9365151554317913e-06  6.7894612891694977e-06  5.7908163046154410e-06  5.1723166851305878e-06  5.6983724836885206e-06  7.1164295601097262e-06  6.5335664352306478e-06  5.3296957642229123e-06  4.1034190614177227e-06  3.0436649872941071e-06  2.1913139196056276e-06  1.5359700241531746e-06  1.0496936032053615e-06  7.0005695972148765e-07  4.5593316982399078e-07  2.9016533366775336e-07  1.8056725809074075e-07  1.0993919589278887e-07  6.5531753714050890e-08  3.8260980958575594e-08  2.1871200983729492e-08  1.2130417135017158e-08  5.9609816217544402e-09  0.0000000000000000e+00  6.0000000000000002e-05  5.5784408584243058e-05  5.4402882554615447e-05  5.3743504518590015e-05  5.3174317741890873e-05  5.2461423921973959e-05  5.1501174736783867e-05  5.0245512012116303e-05  4.8684195072354696e-05  4.6841656516914855e-05  4.4774241854345838e-05  4.2563471052616488e-05  4.0305192935779347e-05  3.8096529711567276e-05  3.6023181422503767e-05  3.4149168014428319e-05  3.2508632940269065e-05  3.1085486748530003e-05  2.9649979557402433e-05  2.6353733605589121e-05  2.1808914409637519e-05  1.8423349482296512e-05  1.5959343105341773e-05  1.4021623830021931e-05  1.2389026665617406e-05  1.0933364592904502e-05  9.5832095650963465e-06  8.3077923994022707e-06  7.1136635591159705e-06  6.0663976976152556e-06  5.3930298066465138e-06  5.8285813832784870e-06  7.1854142655044516e-06  6.5836118802584372e-06  5.3664680038461489e-06  4.1308878243936276e-06  3.0640367401640369e-06  2.2061444996603936e-06  1.5465227788685573e-06  1.0570228716989242e-06  7.0502468342225523e-07  4.5922000136020935e-07  2.9228921486526029e-07  1.8190837069131902e-07  1.1076723480994352e-07  6.6031978204670667e-08  3.8556853007610791e-08  2.2042707534093624e-08  1.2228089788071769e-08  6.0156373585196750e-09  0.0000000000000000e+00  6.0000000000000002e-05  5.6026544677577789e-05  5.4664889980374665e-05  5.4010973981184692e-05  5.3442461893144359e-05  5.2728061123782895e-05  5.1764723003340277e-05  5.0504411413415566e-05  4.8936805710803624e-05  4.7086338189027099e-05  4.5009504329050603e-05  4.2788135574487100e-05  4.0518523308535578e-05  3.8298304835715818e-05  3.6213697592860349e-05  3.4329182053964131e-05  3.2679326941569727e-05  3.1249044286171096e-05  2.9811926048685986e-05  2.6741019442383061e-05  2.2459744741496787e-05  1.9081801573424253e-05  1.6573865842383985e-05  1.4587931723026258e-05  1.2908833906029095e-05  1.1407900494417856e-05  1.0012444159498135e-05  8.6908493963759851e-06  7.4492505632832100e-06  6.3524122188006566e-06  5.6226957571650530e-06  5.9699695125179106e-06  7.2611752583678290e-06  6.6360401782075022e-06  5.4041073752284658e-06  4.1587244166570267e-06  3.0846007683599554e-06  2.2210936376262588e-06  1.5571550406295099e-06  1.0644068350008390e-06  7.1002989414573678e-07  4.6253211781606474e-07  2.9442980089489188e-07  1.8326027649434424e-07  1.1160209201040825e-07  6.6536415168522900e-08  3.8855271608591310e-08  2.2215720149808022e-08  1.2326615457151272e-08  6.0704946709058415e-09  0.0000000000000000e+00  6.0000000000000002e-05  5.6262658246734298e-05  5.4926040758056072e-05  5.4279102548872158e-05  5.3711739768164770e-05  5.2995976808947832e-05  5.2029586887468229e-05  5.0764625070730531e-05  4.9190711774390609e-05  4.7332285200902839e-05  4.5245992889887649e-05  4.3013979164887629e-05  4.0732979729492367e-05  3.8501149278051864e-05  3.6405225396237483e-05  3.4510153030384080e-05  3.2850940057274942e-05  3.1413590142950010e-05  2.9976970701040872e-05  2.7107623311712415e-05  2.3072712274624066e-05  1.9725739167958492e-05  1.7186242382137691e-05  1.5158788147738047e-05  1.3437073417172925e-05  1.1893111284691727e-05  1.0453490908634909e-05  9.0860333651578883e-06  7.7966200967761372e-06  6.6492788066942083e-06  5.8617961673579406e-06  6.1222234649026551e-06  7.3437037691319509e-06  6.6908439456678584e-06  5.4426107833814257e-06  4.1869280409586911e-06  3.1053568859783715e-06  2.2361612402393557e-06  1.5678666960010407e-06  1.0718453574436195e-06  7.1507245293353424e-07  4.6586939275260004e-07  2.9658698621049066e-07  1.8462289303108455e-07  1.1244370641469806e-07  6.7045021359949429e-08  3.9156207283185845e-08  2.2390219257121309e-08  1.2425981225171689e-08  6.1255537715997097e-09  0.0000000000000000e+00  6.0000000000000002e-05  5.6492860771780880e-05  5.5186370038364238e-05  5.4547905675234866e-05  5.3982161166507195e-05  5.3265179092839760e-05  5.2295774039414636e-05  5.1026160505780815e-05  4.9445920691628261e-05  4.7579504813450556e-05  4.5483714519847360e-05  4.3241008420483232e-05  4.0948568326289474e-05  3.8705068653567670e-05  3.6597769929338223e-05  3.4692085502870293e-05  3.3023475855605020e-05  3.1579124359791627e-05  3.0144876309877477e-05  2.7456594390818509e-05  2.3651051002695568e-05  2.0354532643355131e-05  1.7795818810180400e-05  1.5733852213933262e-05  1.3973685497272920e-05  1.2389146356122054e-05  1.0906643200719321e-05  9.4937282381786515e-06  8.1562032510416189e-06  6.9574436726464679e-06  6.1108019233071633e-06  6.2851513415177184e-06  7.4329722586455930e-06  6.7480072936335676e-06  5.4819722477572898e-06  4.2154971143001682e-06  3.1263047618903022e-06  2.2513472517786155e-06  1.5786577117509790e-06  1.0793383835312116e-06  7.2015228868852972e-07  4.6923175297509822e-07  2.9876070502928323e-07  1.8599616638552796e-07  1.1329203675310502e-07  6.7557766853229827e-08  3.9459639260233520e-08  2.2566190872142514e-08  1.2526177941931122e-08  6.1808192501444856e-09  0.0000000000000000e+00  6.0000000000000002e-05  5.6717330873577308e-05  5.5445922851720039e-05  5.4817401982283473e-05  5.4253736862641464e-05  5.3535676358517832e-05  5.2563292138204142e-05  5.1289025183206977e-05  4.9702439804545585e-05  4.7828004199265593e-05  4.5722676130013624e-05  4.3469229895584022e-05  4.1165295221717545e-05  3.8910068612031270e-05  3.6791336359377234e-05  3.4874984125241380e-05  3.3196937978929538e-05  3.1745646903154269e-05  3.0315424731695009e-05  2.7790554266521890e-05  2.4198119025583590e-05  2.0967930010731655e-05  1.8402107450659940e-05  1.6312875337297982e-05  1.4518674286905153e-05  1.2896206402094467e-05  1.1372239166189319e-05  9.9143583800984181e-06  8.5284676843244736e-06  7.2773834100048693e-06  6.3701834040277725e-06  6.4586553318467826e-06  7.5289356593202266e-06  6.8075058959905181e-06  5.5221829840103545e-06  4.2444292802404353e-06  3.1474439085689387e-06  2.2666516369341420e-06  1.5895281177787869e-06  1.0868859229981899e-06  7.2526938596789743e-07  4.7261916903897549e-07  3.0095092424452303e-07  1.8738006609365350e-07  1.1414705801598938e-07  6.8074632648118411e-08  3.9765553905653384e-08  2.2743625591094330e-08  1.2627199558267949e-08  6.2362991732573614e-09  0.0000000000000000e+00  6.0000000000000002e-05  5.6936300613723440e-05  5.5704753775670246e-05  5.5087613160824743e-05  5.4526478583207548e-05  5.3807477260943312e-05  5.2832148907092201e-05  5.1553226531431613e-05  4.9960276391690679e-05  4.8077790465004881e-05  4.5962884578713282e-05  4.3698650115886757e-05  4.1383166540623624e-05  3.9116154837600196e-05  3.6985929916918126e-05  3.5058853633133793e-05  3.3371330126279696e-05  3.1913157477416216e-05  3.0488416570962865e-05  2.8111761759889450e-05  2.4717219164456535e-05  2.1566029457673158e-05  1.9004794031831598e-05  1.6895709947712431e-05  1.5072114909105355e-05  1.3414549146929802e-05  1.1850666362883975e-05  1.0348392508149812e-05  8.9139210039753021e-06  7.6096080861815995e-06  6.6404188063812104e-06  6.6427118891610118e-06  7.6315324023965581e-06  6.8693070561449381e-06  5.5632314823388640e-06  4.2737214226529627e-06  3.1687736739966259e-06  2.2820743670477934e-06  1.6004779931864373e-06  1.0944880385718723e-06  7.3042377497645564e-07  4.7603164746798200e-07  3.0315763761882091e-07  1.8877458096655452e-07  1.1500875854856312e-07  6.8595608711178122e-08  4.0073943438786801e-08  2.2922517765112163e-08  1.2729042581186313e-08  6.2920043574589456e-09  0.0000000000000000e+00  6.0000000000000002e-05  5.7150044307938713e-05  5.5962926637027246e-05  5.5358563871321571e-05  5.4800398983116555e-05  5.4080590728860648e-05  5.3102352125828252e-05  5.1818771959725863e-05  5.0219437687060438e-05  4.8328870669816574e-05  4.6204346687280541e-05  4.3929275589771035e-05  4.1602188415566304e-05  3.9323333048469130e-05  3.7181555889953991e-05  3.5243698833509921e-05  3.3546656039648814e-05  3.2081655394241685e-05  3.0663670438177679e-05  2.8422169628173985e-05  2.5211506353991783e-05  2.2149242847125202e-05  1.9603742876206739e-05  1.7482317918087319e-05  1.5634160774967761e-05  1.3944495312322425e-05  1.2342366676992661e-05  1.0796347789270510e-05  9.3131142771326215e-06  7.9546644096562348e-06  6.9220010945166604e-06  6.8373574093034630e-06  7.7406851979815145e-06  6.9333697775564841e-06  5.6051035848732607e-06  4.3033696812927183e-06  3.1902932362868500e-06  2.2976154091771884e-06  1.6115074549434212e-06  1.1021448359554230e-06  7.3561552336444067e-07  4.7946922437507697e-07  3.0538086102577452e-07  1.9017971566929309e-07  1.1587713767257592e-07  6.9120692373202315e-08  4.0384804882658085e-08  2.3102864825673752e-08  1.2831705627567576e-08  6.3479477836589261e-09  0.0000000000000000e+00  6.0000000000000002e-05  5.7358869436745345e-05  5.6220514222471455e-05  5.5630281643106346e-05  5.5075511620041834e-05  5.4355025964549484e-05  5.3373909640227724e-05  5.2085668872133604e-05  5.0479930895675332e-05  4.8581251840527661e-05  4.6447069253044466e-05  4.4161112817594215e-05  4.1822366991454106e-05  3.9531608996556436e-05  3.7378219619019856e-05  3.5429524596089254e-05  3.3722919493384712e-05  3.2251139487410141e-05  3.0841021911270011e-05  2.8723473543297774e-05  2.5683946239492026e-05  2.2718255523973103e-05  2.0198999938506120e-05  1.8072778489714820e-05  1.6205050914651992e-05  1.4486434742737752e-05  1.2847841400601454e-05  1.1258794099113305e-05  9.7266456791686701e-06  8.3131390186100559e-06  7.2154439658635210e-06  7.0426779086672335e-06  7.8563015541308623e-06  6.9996448430368070e-06  5.6477825641089388e-06  4.3333694694350234e-06  3.2120016007101615e-06  2.3132747175283762e-06  1.6226166486945003e-06  1.1098564556357970e-06  7.4084472950462169e-07  4.8293196023195136e-07  3.0762062854936926e-07  1.9159548791773091e-07  1.1675220373860883e-07  6.9649887017487159e-08  4.0698139205197304e-08  2.3284666732931626e-08  1.2935189058208629e-08  6.4041441285929043e-09  0.0000000000000000e+00  6.0000000000000002e-05  5.7563109305082493e-05  5.6477597980230214e-05  5.5902796770343152e-05  5.5351830926963438e-05  5.4630792441627865e-05  5.3646829369467798e-05  5.2353924678792559e-05  5.0741763206392135e-05  4.8834940984168908e-05  4.6691059060039727e-05  4.4394168299349536e-05  4.2043708429357146e-05  3.9740988467231720e-05  3.7575926493161188e-05  3.5616335846368273e-05  3.3900124286121912e-05  3.2421608063541955e-05  3.1020322300717491e-05  2.9017154067393324e-05  2.6137303561810661e-05  2.3273986563659911e-05  2.0790793793350664e-05  1.8667295592399979e-05  1.6785117251424003e-05  1.5040832641458496e-05  1.3367656460762891e-05  1.1736358432906883e-05  1.0155164284623810e-05  8.6856619140686413e-06  7.5212871238516479e-06  7.2588016177563175e-06  7.9782740335647919e-06  7.0680749069643694e-06  5.6912492039913721e-06  4.3637154937691487e-06  3.2338975988572283e-06  2.3290522268797390e-06  1.6338057413380637e-06  1.1176230661906918e-06  7.4611151698170292e-07  4.8641993557867916e-07  3.0987698928486661e-07  1.9302192618041396e-07  1.1763397253008444e-07  7.0183201005538274e-08  4.1013950616271410e-08  2.3467925524269142e-08  1.3039494677283040e-08  6.4606093923413857e-09  0.0000000000000000e+00  6.0000000000000002e-05  5.7763117159236762e-05  5.6734267701964189e-05  5.6176142203549262e-05  5.5629372182526672e-05  5.4907899901067998e-05  5.3921119311454170e-05  5.2623546805098875e-05  5.1004941802443448e-05  4.9089945098314385e-05  4.6936322887852495e-05  4.4628448540986736e-05  4.2266218909647643e-05  3.9951477279084511e-05  3.7774681946611988e-05  3.5804137559952441e-05  3.4078274234814044e-05  3.2593058880844961e-05  3.1201437293374771e-05  2.9304512466474576e-05  2.6574147485196653e-05  2.3817552217482386e-05  2.1379534872707380e-05  1.9266204535041778e-05  1.7374791770962677e-05  1.5608235885444760e-05  1.3902447782547963e-05  1.2229729460482713e-05  1.0599374002339166e-05  9.0729100485809613e-06  7.8401010752859527e-06  7.4858937085351014e-06  8.1064802539899558e-06  7.1385946040328243e-06  5.7354818849335628e-06  4.3944017766649830e-06  3.2559798897087608e-06  2.3449478476832263e-06  1.6450749150679491e-06  1.1254448588263045e-06  7.5141603007447043e-07  4.8993324750223492e-07  3.1215000471290508e-07  1.9445906779288127e-07  1.1852246595432054e-07  7.0720646796447254e-08  4.1332245991738029e-08  2.3652644944518792e-08  1.3144625485049793e-08  6.5173606047395080e-09  0.0000000000000000e+00  6.0000000000000002e-05  5.7959261516996120e-05  5.6990621178690776e-05  5.6450353435814025e-05  5.5908151479055449e-05  5.5186358345570627e-05  5.4196787546549202e-05  5.2894542699085038e-05  5.1269473870108483e-05  4.9346271179629572e-05  4.7182867518940307e-05  4.4863960059641182e-05  4.2489904634596161e-05  4.016308128373287