<?xml version="1.0"?>
<VTKFile type="UnstructuredGrid"  version="0.1"  >
<UnstructuredGrid>
<Piece  NumberOfPoints="2601" NumberOfCells="5000">
<Points>
<DataArray  type="Float64"  NumberOfComponents="3"  format="ascii">-1 0 0  -0.96 0 0  -0.92 0 0  -0.88 0 0  -0.84 0 0  -0.8 0 0  -0.76 0 0  -0.72 0 0  -0.6799999999999999 0 0  -0.64 0 0  -0.6 0 0  -0.5600000000000001 0 0  -0.52 0 0  -0.48 0 0  -0.4399999999999999 0 0  -0.4 0 0  -0.36 0 0  -0.32 0 0  -0.28 0 0  -0.24 0 0  -0.2 0 0  -0.16 0 0  -0.12 0 0  -0.07999999999999996 0 0  -0.04000000000000004 0 0  0 0 0  0.04000000000000004 0 0  0.08000000000000007 0 0  0.1200000000000001 0 0  0.1599999999999999 0 0  0.2 0 0  0.24 0 0  0.28 0 0  0.3200000000000001 0 0  0.3600000000000001 0 0  0.3999999999999999 0 0  0.4399999999999999 0 0  0.48 0 0  0.52 0 0  0.5600000000000001 0 0  0.6000000000000001 0 0  0.6399999999999999 0 0  0.6799999999999999 0 0  0.72 0 0  0.76 0 0  0.8 0 0  0.8400000000000001 0 0  0.8799999999999999 0 0  0.9199999999999999 0 0  0.96 0 0  1 0 0  -1 0.016 0  -0.96 0.016 0  -0.92 0.016 0  -0.88 0.016 0  -0.84 0.016 0  -0.8 0.016 0  -0.76 0.016 0  -0.72 0.016 0  -0.6799999999999999 0.016 0  -0.64 0.016 0  -0.6 0.016 0  -0.5600000000000001 0.016 0  -0.52 0.016 0  -0.48 0.016 0  -0.4399999999999999 0.016 0  -0.4 0.016 0  -0.36 0.016 0  -0.32 0.016 0  -0.28 0.016 0  -0.24 0.016 0  -0.2 0.016 0  -0.16 0.016 0  -0.12 0.016 0  -0.07999999999999996 0.016 0  -0.04000000000000004 0.016 0  0 0.016 0  0.04000000000000004 0.016 0  0.08000000000000007 0.016 0  0.1200000000000001 0.016 0  0.1599999999999999 0.016 0  0.2 0.016 0  0.24 0.016 0  0.28 0.016 0  0.3200000000000001 0.016 0  0.3600000000000001 0.016 0  0.3999999999999999 0.016 0  0.4399999999999999 0.016 0  0.48 0.016 0  0.52 0.016 0  0.5600000000000001 0.016 0  0.6000000000000001 0.016 0  0.6399999999999999 0.016 0  0.6799999999999999 0.016 0  0.72 0.016 0  0.76 0.016 0  0.8 0.016 0  0.8400000000000001 0.016 0  0.8799999999999999 0.016 0  0.9199999999999999 0.016 0  0.96 0.016 0  1 0.016 0  -1 0.032 0  -0.96 0.032 0  -0.92 0.032 0  -0.88 0.032 0  -0.84 0.032 0  -0.8 0.032 0  -0.76 0.032 0  -0.72 0.032 0  -0.6799999999999999 0.032 0  -0.64 0.032 0  -0.6 0.032 0  -0.5600000000000001 0.032 0  -0.52 0.032 0  -0.48 0.032 0  -0.4399999999999999 0.032 0  -0.4 0.032 0  -0.36 0.032 0  -0.32 0.032 0  -0.28 0.032 0  -0.24 0.032 0  -0.2 0.032 0  -0.16 0.032 0  -0.12 0.032 0  -0.07999999999999996 0.032 0  -0.04000000000000004 0.032 0  0 0.032 0  0.04000000000000004 0.032 0  0.08000000000000007 0.032 0  0.1200000000000001 0.032 0  0.1599999999999999 0.032 0  0.2 0.032 0  0.24 0.032 0  0.28 0.032 0  0.3200000000000001 0.032 0  0.3600000000000001 0.032 0  0.3999999999999999 0.032 0  0.4399999999999999 0.032 0  0.48 0.032 0  0.52 0.032 0  0.5600000000000001 0.032 0  0.6000000000000001 0.032 0  0.6399999999999999 0.032 0  0.6799999999999999 0.032 0  0.72 0.032 0  0.76 0.032 0  0.8 0.032 0  0.8400000000000001 0.032 0  0.8799999999999999 0.032 0  0.9199999999999999 0.032 0  0.96 0.032 0  1 0.032 0  -1 0.04800000000000001 0  -0.96 0.04800000000000001 0  -0.92 0.04800000000000001 0  -0.88 0.04800000000000001 0  -0.84 0.04800000000000001 0  -0.8 0.04800000000000001 0  -0.76 0.04800000000000001 0  -0.72 0.04800000000000001 0  -0.6799999999999999 0.04800000000000001 0  -0.64 0.04800000000000001 0  -0.6 0.04800000000000001 0  -0.5600000000000001 0.04800000000000001 0  -0.52 0.04800000000000001 0  -0.48 0.04800000000000001 0  -0.4399999999999999 0.04800000000000001 0  -0.4 0.04800000000000001 0  -0.36 0.04800000000000001 0  -0.32 0.04800000000000001 0  -0.28 0.04800000000000001 0  -0.24 0.04800000000000001 0  -0.2 0.04800000000000001 0  -0.16 0.04800000000000001 0  -0.12 0.04800000000000001 0  -0.07999999999999996 0.04800000000000001 0  -0.04000000000000004 0.04800000000000001 0  0 0.04800000000000001 0  0.04000000000000004 0.04800000000000001 0  0.08000000000000007 0.04800000000000001 0  0.1200000000000001 0.04800000000000001 0  0.1599999999999999 0.04800000000000001 0  0.2 0.04800000000000001 0  0.24 0.04800000000000001 0  0.28 0.04800000000000001 0  0.3200000000000001 0.04800000000000001 0  0.3600000000000001 0.04800000000000001 0  0.3999999999999999 0.04800000000000001 0  0.4399999999999999 0.04800000000000001 0  0.48 0.04800000000000001 0  0.52 0.04800000000000001 0  0.5600000000000001 0.04800000000000001 0  0.6000000000000001 0.04800000000000001 0  0.6399999999999999 0.04800000000000001 0  0.6799999999999999 0.04800000000000001 0  0.72 0.04800000000000001 0  0.76 0.04800000000000001 0  0.8 0.04800000000000001 0  0.8400000000000001 0.04800000000000001 0  0.8799999999999999 0.04800000000000001 0  0.9199999999999999 0.04800000000000001 0  0.96 0.04800000000000001 0  1 0.04800000000000001 0  -1 0.064 0  -0.96 0.064 0  -0.92 0.064 0  -0.88 0.064 0  -0.84 0.064 0  -0.8 0.064 0  -0.76 0.064 0  -0.72 0.064 0  -0.6799999999999999 0.064 0  -0.64 0.064 0  -0.6 0.064 0  -0.5600000000000001 0.064 0  -0.52 0.064 0  -0.48 0.064 0  -0.4399999999999999 0.064 0  -0.4 0.064 0  -0.36 0.064 0  -0.32 0.064 0  -0.28 0.064 0  -0.24 0.064 0  -0.2 0.064 0  -0.16 0.064 0  -0.12 0.064 0  -0.07999999999999996 0.064 0  -0.04000000000000004 0.064 0  0 0.064 0  0.04000000000000004 0.064 0  0.08000000000000007 0.064 0  0.1200000000000001 0.064 0  0.1599999999999999 0.064 0  0.2 0.064 0  0.24 0.064 0  0.28 0.064 0  0.3200000000000001 0.064 0  0.3600000000000001 0.064 0  0.3999999999999999 0.064 0  0.4399999999999999 0.064 0  0.48 0.064 0  0.52 0.064 0  0.5600000000000001 0.064 0  0.6000000000000001 0.064 0  0.6399999999999999 0.064 0  0.6799999999999999 0.064 0  0.72 0.064 0  0.76 0.064 0  0.8 0.064 0  0.8400000000000001 0.064 0  0.8799999999999999 0.064 0  0.9199999999999999 0.064 0  0.96 0.064 0  1 0.064 0  -1 0.08 0  -0.96 0.08 0  -0.92 0.08 0  -0.88 0.08 0  -0.84 0.08 0  -0.8 0.08 0  -0.76 0.08 0  -0.72 0.08 0  -0.6799999999999999 0.08 0  -0.64 0.08 0  -0.6 0.08 0  -0.5600000000000001 0.08 0  -0.52 0.08 0  -0.48 0.08 0  -0.4399999999999999 0.08 0  -0.4 0.08 0  -0.36 0.08 0  -0.32 0.08 0  -0.28 0.08 0  -0.24 0.08 0  -0.2 0.08 0  -0.16 0.08 0  -0.12 0.08 0  -0.07999999999999996 0.08 0  -0.04000000000000004 0.08 0  0 0.08 0  0.04000000000000004 0.08 0  0.08000000000000007 0.08 0  0.1200000000000001 0.08 0  0.1599999999999999 0.08 0  0.2 0.08 0  0.24 0.08 0  0.28 0.08 0  0.3200000000000001 0.08 0  0.3600000000000001 0.08 0  0.3999999999999999 0.08 0  0.4399999999999999 0.08 0  0.48 0.08 0  0.52 0.08 0  0.5600000000000001 0.08 0  0.6000000000000001 0.08 0  0.6399999999999999 0.08 0  0.6799999999999999 0.08 0  0.72 0.08 0  0.76 0.08 0  0.8 0.08 0  0.8400000000000001 0.08 0  0.8799999999999999 0.08 0  0.9199999999999999 0.08 0  0.96 0.08 0  1 0.08 0  -1 0.09600000000000002 0  -0.96 0.09600000000000002 0  -0.92 0.09600000000000002 0  -0.88 0.09600000000000002 0  -0.84 0.09600000000000002 0  -0.8 0.09600000000000002 0  -0.76 0.09600000000000002 0  -0.72 0.09600000000000002 0  -0.6799999999999999 0.09600000000000002 0  -0.64 0.09600000000000002 0  -0.6 0.09600000000000002 0  -0.5600000000000001 0.09600000000000002 0  -0.52 0.09600000000000002 0  -0.48 0.09600000000000002 0  -0.4399999999999999 0.09600000000000002 0  -0.4 0.09600000000000002 0  -0.36 0.09600000000000002 0  -0.32 0.09600000000000002 0  -0.28 0.09600000000000002 0  -0.24 0.09600000000000002 0  -0.2 0.09600000000000002 0  -0.16 0.09600000000000002 0  -0.12 0.09600000000000002 0  -0.07999999999999996 0.09600000000000002 0  -0.04000000000000004 0.09600000000000002 0  0 0.09600000000000002 0  0.04000000000000004 0.09600000000000002 0  0.08000000000000007 0.09600000000000002 0  0.1200000000000001 0.09600000000000002 0  0.1599999999999999 0.09600000000000002 0  0.2 0.09600000000000002 0  0.24 0.09600000000000002 0  0.28 0.09600000000000002 0  0.3200000000000001 0.09600000000000002 0  0.3600000000000001 0.09600000000000002 0  0.3999999999999999 0.09600000000000002 0  0.4399999999999999 0.09600000000000002 0  0.48 0.09600000000000002 0  0.52 0.09600000000000002 0  0.5600000000000001 0.09600000000000002 0  0.6000000000000001 0.09600000000000002 0  0.6399999999999999 0.09600000000000002 0  0.6799999999999999 0.09600000000000002 0  0.72 0.09600000000000002 0  0.76 0.09600000000000002 0  0.8 0.09600000000000002 0  0.8400000000000001 0.09600000000000002 0  0.8799999999999999 0.09600000000000002 0  0.9199999999999999 0.09600000000000002 0  0.96 0.09600000000000002 0  1 0.09600000000000002 0  -1 0.112 0  -0.96 0.112 0  -0.92 0.112 0  -0.88 0.112 0  -0.84 0.112 0  -0.8 0.112 0  -0.76 0.112 0  -0.72 0.112 0  -0.6799999999999999 0.112 0  -0.64 0.112 0  -0.6 0.112 0  -0.5600000000000001 0.112 0  -0.52 0.112 0  -0.48 0.112 0  -0.4399999999999999 0.112 0  -0.4 0.112 0  -0.36 0.112 0  -0.32 0.112 0  -0.28 0.112 0  -0.24 0.112 0  -0.2 0.112 0  -0.16 0.112 0  -0.12 0.112 0  -0.07999999999999996 0.112 0  -0.04000000000000004 0.112 0  0 0.112 0  0.04000000000000004 0.112 0  0.08000000000000007 0.112 0  0.1200000000000001 0.112 0  0.1599999999999999 0.112 0  0.2 0.112 0  0.24 0.112 0  0.28 0.112 0  0.3200000000000001 0.112 0  0.3600000000000001 0.112 0  0.3999999999999999 0.112 0  0.4399999999999999 0.112 0  0.48 0.112 0  0.52 0.112 0  0.5600000000000001 0.112 0  0.6000000000000001 0.112 0  0.6399999999999999 0.112 0  0.6799999999999999 0.112 0  0.72 0.112 0  0.76 0.112 0  0.8 0.112 0  0.8400000000000001 0.112 0  0.8799999999999999 0.112 0  0.9199999999999999 0.112 0  0.96 0.112 0  1 0.112 0  -1 0.128 0  -0.96 0.128 0  -0.92 0.128 0  -0.88 0.128 0  -0.84 0.128 0  -0.8 0.128 0  -0.76 0.128 0  -0.72 0.128 0  -0.6799999999999999 0.128 0  -0.64 0.128 0  -0.6 0.128 0  -0.5600000000000001 0.128 0  -0.52 0.128 0  -0.48 0.128 0  -0.4399999999999999 0.128 0  -0.4 0.128 0  -0.36 0.128 0  -0.32 0.128 0  -0.28 0.128 0  -0.24 0.128 0  -0.2 0.128 0  -0.16 0.128 0  -0.12 0.128 0  -0.07999999999999996 0.128 0  -0.04000000000000004 0.128 0  0 0.128 0  0.04000000000000004 0.128 0  0.08000000000000007 0.128 0  0.1200000000000001 0.128 0  0.1599
[...]
<PointData  Scalars="f_100"> 
<DataArray  type="Float64"  Name="f_100"  format="ascii">6.0000000000000002e-05  5.4279541896247574e-05  5.3010156355663594e-05  5.2581630999747730e-05  5.2390747164008355e-05  5.2240602144065852e-05  5.2055503007240639e-05  5.1795662939966277e-05  5.1431354633833112e-05  5.0936197063455128e-05  5.0286889554237054e-05  4.9465174612995180e-05  4.8460390453440684e-05  4.7271748963150039e-05  4.5909723948095824e-05  4.4395872769796461e-05  4.2758463229439663e-05  4.1002550547458681e-05  3.8944550057594327e-05  3.1255825708439968e-05  2.2501235073472041e-05  1.8447119455527496e-05  1.5710973587640083e-05  1.3713079481421664e-05  1.2195372130047366e-05  1.1005498167332524e-05  1.0043799289437851e-05  9.2496188289417715e-06  8.6152107146561183e-06  8.2579847668344354e-06  8.6757632427118205e-06  1.1946550862000716e-05  1.6614171493162980e-05  1.7128275315634259e-05  1.6146090019043280e-05  1.4639407328136881e-05  1.2972726857875096e-05  1.1289244565702017e-05  9.6596034053088326e-06  8.1278443516223236e-06  6.7242880573489737e-06  5.4687719609963598e-06  4.3716196178165526e-06  3.4345229735150309e-06  2.6518193240094588e-06  2.0120474749763084e-06  1.4993173493584230e-06  1.0932766177379577e-06  7.6382824759402672e-07  4.4842728196823731e-07  0.0000000000000000e+00  6.0000000000000002e-05  5.4553641510794733e-05  5.3277519313506577e-05  5.2845929869050960e-05  5.2653937733239060e-05  5.2503198189250745e-05  5.2317502813109095e-05  5.2056831392700911e-05  5.1691299923847480e-05  5.1194387194289663e-05  5.0542657537238543e-05  4.9717730139231124e-05  4.8708844806093403e-05  4.7515154758655572e-05  4.6147127907516092e-05  4.4626378359614760e-05  4.2981310290389229e-05  4.1217423959299628e-05  3.9132362899438917e-05  3.2079844871690697e-05  2.3633905822145562e-05  1.9376679771332487e-05  1.6490000715297728e-05  1.4383666370133845e-05  1.2784956939526389e-05  1.1532804198966345e-05  1.0521766376097447e-05  9.6869667839624294e-06  9.0172159868374649e-06  8.6263392556811192e-06  9.0067279370259748e-06  1.2073846644901142e-05  1.6690663093138287e-05  1.7219487771497650e-05  1.6234748730700080e-05  1.4721258573862610e-05  1.3046350879736360e-05  1.1354229040082536e-05  9.7159941417234217e-06  8.1759648616236751e-06  6.7646619041593604e-06  5.5020692569419105e-06  4.3986073485034057e-06  3.4560167775416617e-06  2.6686392607038749e-06  2.0249809070743521e-06  1.5090914840779663e-06  1.1005432643438042e-06  7.6916586993653971e-07  4.5238337030270303e-07  0.0000000000000000e+00  6.0000000000000002e-05  5.4823695394138255e-05  5.3544061384224229e-05  5.3110871840992824e-05  5.2918232253510427e-05  5.2767042812677460e-05  5.2580795321397303e-05  5.2319303984599365e-05  5.1952549208633846e-05  5.1453875892782624e-05  5.0799714972076050e-05  4.9971562430351545e-05  4.8958559370889582e-05  4.7759800043290732e-05  4.6385746502629904e-05  4.4858071725229010e-05  4.3205334732777097e-05  4.1433637121090201e-05  3.9326671155555783e-05  3.2832500700407229e-05  2.4757546839672049e-05  2.0304170525212665e-05  1.7275601571513147e-05  1.5064912362671717e-05  1.3387274939082401e-05  1.2073920752872412e-05  1.1014042068790698e-05  1.0138702451115796e-05  9.4332331494304524e-06  9.0074621303595488e-06  9.3453640523413763e-06  1.2229852341021068e-05  1.6778929032751768e-05  1.7314986625946849e-05  1.6325093161614955e-05  1.4803936407484435e-05  1.3120503516038363e-05  1.1419619723301595e-05  9.7727234370990383e-06  8.2243740513722544e-06  6.8052814551185770e-06  5.5355733526924824e-06  4.4257665847238353e-06  3.4776505328777297e-06  2.6855715009284541e-06  2.0380029487216190e-06  1.5189343985244928e-06  1.1078624206511560e-06  7.7454114601107901e-07  4.5634040953029453e-07  0.0000000000000000e+00  6.0000000000000002e-05  5.5088907638933303e-05  5.3809741916134762e-05  5.3376450139655997e-05  5.3183633235556055e-05  5.3032141515903227e-05  5.2845387070712897e-05  5.2583087693278252e-05  5.2215109728183138e-05  5.1714670606396416e-05  5.1058069481346686e-05  5.0226679240044577e-05  4.9209541965542685e-05  4.8005692607134560e-05  4.6625587378832139e-05  4.5090960179966566e-05  4.3430542866915689e-05  4.1651181481342512e-05  3.9527062601010113e-05  3.3523618966832654e-05  2.5843386995613970e-05  2.1224425462355219e-05  1.8065545474752001e-05  1.5755671307492055e-05  1.4001782909616943e-05  1.2628682413783029e-05  1.1520712862853857e-05  1.0605089953155109e-05  9.8636694968876842e-06  9.4019402867741715e-06  9.6932913459667003e-06  1.2411092203546708e-05  1.6879156304012443e-05  1.7414837670408864e-05  1.6417150606322527e-05  1.4887451414965395e-05  1.3195189677227616e-05  1.1485419386915013e-05  9.8297930347463311e-06  8.2730730070186318e-06  6.8461472975684043e-06  5.5692844405019471e-06  4.4530972152871767e-06  3.4994239115185645e-06  2.7026155784143873e-06  2.0511130598636265e-06  1.5288455190512897e-06  1.1152334707941194e-06  7.7995332727557173e-07  4.6029676756146345e-07  0.0000000000000000e+00  6.0000000000000002e-05  5.5348720054896418e-05  5.4074536478332865e-05  5.3642662110032775e-05  5.3450144485887682e-05  5.3298500199162435e-05  5.3111284698541109e-05  5.2848189480091576e-05  5.2478988646538986e-05  5.1976778663247242e-05  5.1317728531184527e-05  5.0483088134395138e-05  4.9461800197841954e-05  4.8252840020286164e-05  4.6866657966682435e-05  4.5325050845919499e-05  4.3656940862334423e-05  4.1870052285335414e-05  3.9733122709103628e-05  3.4161889974428653e-05  2.6877532986758017e-05  2.2133752173062634e-05  1.8857934173679445e-05  1.6454963768990831e-05  1.4628046753636564e-05  1.3197004231970574e-05  1.2041927617997142e-05  1.1086440597944180e-05  1.0308959498836026e-05  9.8103458762718754e-06  1.0051870690689926e-05  1.2615084734657749e-05  1.6991482642281183e-05  1.7519089912230852e-05  1.6510941235028448e-05  1.4971811840543189e-05  1.3270413531983364e-05  1.1551630599123544e-05  9.8872046779336292e-06  8.3220629094210731e-06  6.8872601679364950e-06  5.6032028954756480e-06  4.4805993307642336e-06  3.5213367936326811e-06  2.7197712310647202e-06  2.0643108929703529e-06  1.5388244497084521e-06  1.1226559683550667e-06  7.8540185756298139e-07  4.6425153726709771e-07  0.0000000000000000e+00  6.0000000000000002e-05  5.5602768869464089e-05  5.4338434747889646e-05  5.3909508992343155e-05  5.3717771042127146e-05  5.3566125146937371e-05  5.3378494945546058e-05  5.3114616303937910e-05  5.2744193072718364e-05  5.2240207299613098e-05  5.1578699465001117e-05  5.0740796531051951e-05  4.9715341508772075e-05  4.8501249677776435e-05  4.7108965525733255e-05  4.5560350691794192e-05  4.3884534757453083e-05  4.2090247434477149e-05  3.9944445494393493e-05  3.4754897035507038e-05  2.7854742436153393e-05  2.3029207872943758e-05  1.9651095594204690e-05  1.7161926932311137e-05  1.5265709671369363e-05  1.3778860564700174e-05  1.2577884002696038e-05  1.1583106031638070e-05  1.0769566670458289e-05  1.0233255928564977e-05  1.0422275221718142e-05  1.2840070569102840e-05  1.7115997576736807e-05  1.7627775884967473e-05  1.6606478467978061e-05  1.5057023727881625e-05  1.3346178555330868e-05  1.1618255736656593e-05  9.9449601039449435e-06  8.3713450168579601e-06  6.9286209262827217e-06  5.6373292443672218e-06  4.5082731887925800e-06  3.5433892314934088e-06  2.7370383653539657e-06  2.0775962592880436e-06  1.5488709409617855e-06  1.1301296065977605e-06  7.9088634089068778e-07  4.6820439706418126e-07  0.0000000000000000e+00  6.0000000000000002e-05  5.5850848796152940e-05  5.4601439022587105e-05  5.4176995738807920e-05  5.3986519119476939e-05  5.3835023016013468e-05  5.3647024659122973e-05  5.3382375132665049e-05  5.3010730077982169e-05  5.2504963682629516e-05  5.1840989531308881e-05  5.0999811731509826e-05  4.9970173208036392e-05  4.8750928836550031e-05  4.7352517180610461e-05  4.5796866564138894e-05  4.4113330470028163e-05  4.2311766576076063e-05  4.0160641066417407e-05  3.5309201900134236e-05  2.8774693148477420e-05  2.3908385881176790e-05  2.0443551329130872e-05  1.7875795654741217e-05  1.5914479660754685e-05  1.4374276857924591e-05  1.3128823596676928e-05  1.2095476534258712e-05  1.1245986401172856e-05  1.0671264308458349e-05  1.0805543121850466e-05  1.3084817398506923e-05  1.7252744922673395e-05  1.7740911882346860e-05  1.6703769288333508e-05  1.5143091036683707e-05  1.3422487568310527e-05  1.1685296994527586e-05  1.0003061039139670e-05  8.4209206507510500e-06  6.9702305353140562e-06  5.6716641398791167e-06  4.5361191855226643e-06  3.5655814198126903e-06  2.7544170270626646e-06  2.0909691011103176e-06  1.5589848640031120e-06  1.1376541940237902e-06  7.9640651509775918e-07  4.7215549628283307e-07  0.0000000000000000e+00  6.0000000000000002e-05  5.6092883266804936e-05  5.4863563176201149e-05  5.4445130860537431e-05  5.4256396065400200e-05  5.4105200825279262e-05  5.3916880796236928e-05  5.3651472952464354e-05  5.3278606710088480e-05  5.2771054929017864e-05  5.2104605906670433e-05  5.1260140947723830e-05  5.0226302503328481e-05  4.9001884645924793e-05  4.7597319950724238e-05  4.6034605213128751e-05  4.4343333807727782e-05  4.2534610386877987e-05  4.0381340611554781e-05  3.5830454093378189e-05  2.9639758337251374e-05  2.4769386122275039e-05  2.1234013146645777e-05  1.8595899377658374e-05  1.6574127365128295e-05  1.4983328465148732e-05  1.3695031731265768e-05  1.2623982124341928e-05  1.1738749250771447e-05  1.1124989472474364e-05  1.1202617449710048e-05  1.3348479977466943e-05  1.7401725930769094e-05  1.7858498137411285e-05  1.6802814508033085e-05  1.5230015740709076e-05  1.3499342771228573e-05  1.1752756394213215e-05  1.0061509194899613e-05  8.4707911838928136e-06  7.0120900430894456e-06  5.7062083394981235e-06  4.5641378321185703e-06  3.5879136713408652e-06  2.7719073772195675e-06  2.1044294689947795e-06  1.5691661896520881e-06  1.1452296342980247e-06  8.0196223021627261e-07  4.7610536114760751e-07  0.0000000000000000e+00  6.0000000000000002e-05  5.6328899818945835e-05  5.5124831918799233e-05  5.4713926295259852e-05  5.4527410320168733e-05  5.4376665946681794e-05  5.4188070425584564e-05  5.3921916775580236e-05  5.3547830005050896e-05  5.3038488120542706e-05  5.2369555714633259e-05  5.1521791324056883e-05  5.0483736524459217e-05  4.9254124172685981e-05  4.7843380774743790e-05  4.6273573313880252e-05  4.4574550478432345e-05  4.2758780018195203e-05  4.0606199394548823e-05  3.6323505591948493e-05  3.0453690067314015e-05  2.5610828696513047e-05  2.2021390442858879e-05  1.9321667087727441e-05  1.7244489477659230e-05  1.5606143336241106e-05  1.4276839967904735e-05  1.3169095239496142e-05  1.2248424509755597e-05  1.1595080024823273e-05  1.1614376680353119e-05  1.3630499560326325e-05  1.7562902587729721e-05  1.7980518966164382e-05  1.6903608998533129e-05  1.5317797911994295e-05  1.3576745772119744e-05  1.1820635790697525e-05  1.0120306264363442e-05  8.5209580307576759e-06  7.0542005687720804e-06  5.7409626880677431e-06  4.5923297354191992e-06  3.6103863967976526e-06  2.7895096723244874e-06  2.1179775030426719e-06  1.5794149710282158e-06  1.1528559097595561e-06  8.0755343068888263e-07  4.8005481789894661e-07  0.0000000000000000e+00  6.0000000000000002e-05  5.6559009793035068e-05  5.5385280259801083e-05  5.4983397288894896e-05  5.4799571381409934e-05  5.4649426096870472e-05  5.4460600729114114e-05  5.4193713646604696e-05  5.3818406996832922e-05  5.3307270316772475e-05  5.2635846041357841e-05  5.1784769955386047e-05  5.0742482343250840e-05  4.9507654421768185e-05  4.8090706530768253e-05  4.6513777484095429e-05  4.4806986100032946e-05  4.2984276674645570e-05  4.0834898258862443e-05  3.6792520932581044e-05  3.1220849855505748e-05  2.6431858171863732e-05  2.2804801108970743e-05  2.0052636197525898e-05  1.7925475122962148e-05  1.6242906869572280e-05  1.4874630087555907e-05  1.3731334340995710e-05  1.2775623949506464e-05  1.2082219207533639e-05  1.2041658508326625e-05  1.3930531605338541e-05  1.7736200752812019e-05  1.8106942892405052e-05  1.7006141896210815e-05  1.5406435795143039e-05  1.3654697611731774e-05  1.1888936878732307e-05  1.0179453919861426e-05  8.5714226395488006e-06  7.0965632908986346e-06  5.7759281034394814e-06  4.6206955820235940e-06  3.6330000883651772e-06  2.8072242480895486e-06  2.1316134175162775e-06  1.5897313293183650e-06  1.1605330678747800e-06  8.1318014071211983e-07  4.8400493015880188e-07  0.0000000000000000e+00  6.0000000000000002e-05  5.6783391631522955e-05  5.5644953098777430e-05  5.5253562285684574e-05  5.5072889771163517e-05  5.4923489329159924e-05  5.4734479002938396e-05  5.4466870647581479e-05  5.4090344725334465e-05  5.3577408565616640e-05  5.2903483948522571e-05  5.2049083902046852e-05  5.1002546989948159e-05  4.9762482353308712e-05  4.8339304052960407e-05  4.6755224298694603e-05  4.5040646209624191e-05  4.3211101302391507e-05  4.1067144008398663e-05  3.7241077953567671e-05  3.1945768255714877e-05  2.7232125749378659e-05  2.3583582401014186e-05  2.0788463104796574e-05  1.8617073812562180e-05  1.6893868001567075e-05  1.5488838983071958e-05  1.4311268097153965e-05  1.3321005742112804e-05  1.2587128955806874e-05  1.2485278722572932e-05  1.4248393776574810e-05  1.7921512942737012e-05  1.8237722767750196e-05  1.7110396790454996e-05  1.5495925874794639e-05  1.3733198786081690e-05  1.1957661198592920e-05  1.0238953810974592e-05  8.6221864856914281e-06  7.1391794377275200e-06  5.8111055646608699e-06  4.6492361251941204e-06  3.6557553061101567e-06  2.8250515060719761e-06  2.1453374881979220e-06  1.6001154420855529e-06  1.1682612101042969e-06  8.1884245212063088e-07  4.8795694812664903e-07  0.0000000000000000e+00  6.0000000000000002e-05  5.7002277186615174e-05  5.5903904889827481e-05  5.5524442822869782e-05  5.5347377004267123e-05  5.5198864025522193e-05  5.5009712657673862e-05  5.4741394902106217e-05  5.4363650242964312e-05  5.3848909912029943e-05  5.3172476483986454e-05  5.2314740202175636e-05  5.1263937466765207e-05  5.0018614896717692e-05  4.8589180145274286e-05  4.6997920301980203e-05  4.5275536272073389e-05  4.3439254366290389e-05  4.1302668972037181e-05  3.7672257318854302e-05  3.2632901574297080e-05  2.8011752021023951e-05  2.4357300114112958e-05  2.1528934197818984e-05  1.9319364200501706e-05  1.7559346025727906e-05  1.6119964123999104e-05  1.4909519961633949e-05  1.3885278549889343e-05  1.3110573860351049e-05  1.2946046460133173e-05  1.4584028547882941e-05  1.8118700662461940e-05  1.8372795898399106e-05  1.7216351901024155e-05  1.5586262938760486e-05  1.3812249267422786e-05  1.2026810141550395e-05  1.0298807563152060e-05  8.6732510665330317e-06  7.1820502793045888e-06  5.8464961022532462e-06  4.6779521740781620e-06  3.6786526668143494e-06  2.8429919026828062e-06  2.1591500420005030e-06  1.6105675336635791e-06  1.1760404827497270e-06  8.2454051433765127e-07  4.9191226759421937e-07  0.0000000000000000e+00  6.0000000000000002e-05  5.7215940540043492e-05  5.6162199341239630e-05  5.5796063426866141e-05  5.5623045557139135e-05  5.5475558888382629e-05  5.5286309218237176e-05  5.5017293578577693e-05  5.4638330620041348e-05  5.4121781405205385e-05  5.3442830690605869e-05  5.2581745881911075e-05  5.1526660759075928e-05  5.0276058962296164e-05  4.8840341592795791e-05  4.7241872017777550e-05  4.5511661688003636e-05  4.3668735698531104e-05  4.1541229985638533e-05  3.8088720616751477e-05  3.3286506051023059e-05  2.8771277583303243e-05  2.5125755226817540e-05  2.2273976631896274e-05  2.0032523205315018e-05  1.8239737857625537e-05  1.6768569411476902e-05  1.5526773047611208e-05  1.4469205790173078e-05  1.3653365215328779e-05  1.3424776797100916e-05  1.4937476333679986e-05  1.8327596234569657e-05  1.8512084188094357e-05  1.7323980250049849e-05  1.5677440138812955e-05  1.3891848524289509e-05  1.2096384955233386e-05  1.0359016776828836e-05  8.7246178970512551e-06  7.2251771209475689e-06  5.8821007902107313e-06  4.7068445848370561e-06  3.7016928347845161e-06  2.8610459401473486e-06  2.1730514484265968e-06  1.6210878672632699e-06  1.1838710694239995e-06  8.3027452600619132e-07  4.9587239710242822e-07  0.0000000000000000e+00  6.0000000000000002e-05  5.7424688918947386e-05  5.6419909124085546e-05  5.6068451508625232e-05  5.5899908836230728e-05  5.5753582932046261e-05  5.5564276323129524e-05  5.5294573892729626e-05  5.4914392949225286e-05  5.4396030104521942e-05  5.3714553613532249e-05  5.2850107963835094e-05  5.1790723844668392e-05  5.0534821450839615e-05  4.9092795171123618e-05  4.7487085957920159e-05  4.5749027801262064e-05  4.3899544404141024e-05  4.1782606971894262e-05  3.8492777687812907e-05  3.3910581417994993e-05  2.9511608706194701e-05  2.5888987731677875e-05  2.3023668520765912e-05  2.0756835250910902e-05  1.8935525583595238e-05  1.7435291320183215e-05  1.6163775243070620e-05  1.5073610080791959e-05  1.4216365240850662e-05  1.3922301389037516e-05  1.5308856227414107e-05  1.8548004115037198e-05  1.8655494305027130e-05  1.7433249833064210e-05  1.5769449050697987e-05  1.3971995541147504e-05  1.2166386749015283e-05  1.0419583026993461e-05  8.7762885064042784e-06  7.2685612979024745e-06  5.9179207394164104e-06  4.7359142533433217e-06  3.7248765142888448e-06  2.8792141590683362e-06  2.1870421125447077e-06  1.6316767384826852e-06  1.1917531848522348e-06  8.3604472798764577e-07  4.9983893184318270e-07  0.0000000000000000e+00  6.0000000000000002e-05  5.7628855359687984e-05  5.6677115572290581e-05  5.6341637256431782e-05  5.6177981145584985e-05  5.6032945473623900e-05  5.5843621723237367e-05  5.5573243109550880e-05  5.5191844349142965e-05  5.4671663084466091e-05  5.3987652306260307e-05  5.3119833473966714e-05  5.2056133701408070e-05  5.0794909261587229e-05  4.9346547654142249e-05  4.7733568629381271e-05  4.5987639905962114e-05  4.4131678811218276e-05  4.2026601254801705e-05  3.8886444240317086e-05  3.4508854868055687e-05  3.0233963627985708e-05  2.6647277763735651e-05  2.3778248376153071e-05  2.1492701483775347e-05  1.9647284197150056e-05  1.8120845266841790e-05  1.6821344535660280e-05  1.5699377869573153e-05  1.4800491521367104e-05  1.4439477696590807e-05  1.5698352254354660e-05  1.8779701704419855e-05  1.8802917879110619e-05  1.7544123792593825e-05  1.5862279734604151e-05  1.4052688838061946e-05  1.2236816499530754e-05  1.0480507863161080e-05  8.8282644351860903e-06  7.3122041709679238e-06  5.9539570922248854e-06  4.7651621091667954e-06  3.7482044433289868e-06  2.8974971323043601e-06  2.2011224692099541e-06  1.6423344699682746e-06  1.1996870697624522e-06  8.4185139747297380e-07  5.0381353314112407e-07  0.0000000000000000e+00  6.0000000000000002e-05  5.7828792828142963e-05  5.6933908363250509e-05  5.6615653524827108e-05  5.6457277653077869e-05  5.6313656123362375e-05  5.6124353280177383e-05  5.5853308544684589e-05  5.5470691967347709e-05  5.4948687438708425e-05  5.4262133835649475e-05  5.3390929447567496e-05  5.2322897313595313e-05  5.1056329298814135e-05  4.9601605820477140e-05  4.7981326540300523e-05  4.6227503253194674e-05  4.4365136455896963e-05  4.2273033710854942e-05  3.9271490952771042e-05  3.5084788046966819e-05  3.0939823191129862e-05  2.7401144416909960e-05  2.4538123746675194e-05  2.2240648885553603e-05  2.0375689464162165e-05  1.8826032167860110e-05  1.7500374527551295e-05  1.6347464248985268e-05  1.5406721677473465e-05  1.4977197204390990e-05  1.6106203636218278e-05  1.9022439675610114e-05  1.8954231735066285e-05  1.7656560597158106e-05  1.5955920797042610e-05  1.4133926490703660e-05  1.2307675056400537e-05  1.0541792809712699e-05  8.8805472332721022e-06  7.3561071229185132e-06  5.9902110180040190e-06  4.7945891106191772e-06  3.7716773885079567e-06  2.9158954599268337e-06  2.2152929783046243e-06  1.6530614070187698e-06  1.2076729866680633e-06  8.4769484299881763e-07  5.0779791254351794e-07  0.0000000000000000e+00  6.0000000000000002e-05  5.8024869552526845e-05  5.7190385172770950e-05  5.6890535718698073e-05  5.6737814355027499e-05  5.6595724774311838e-05  5.6406478964212084e-05  5.6134777565382140e-05  5.5750942982725847e-05  5.5227110283485338e-05  5.4538005286102419e-05  5.3663402933972399e-05  5.2591021677252311e-05  5.131908847731177