<?xml version="1.0"?>
<VTKFile type="UnstructuredGrid"  version="0.1"  >
<UnstructuredGrid>
<Piece  NumberOfPoints="2601" NumberOfCells="5000">
<Points>
<DataArray  type="Float64"  NumberOfComponents="3"  format="ascii">-1 0 0  -0.96 0 0  -0.92 0 0  -0.88 0 0  -0.84 0 0  -0.8 0 0  -0.76 0 0  -0.72 0 0  -0.6799999999999999 0 0  -0.64 0 0  -0.6 0 0  -0.5600000000000001 0 0  -0.52 0 0  -0.48 0 0  -0.4399999999999999 0 0  -0.4 0 0  -0.36 0 0  -0.32 0 0  -0.28 0 0  -0.24 0 0  -0.2 0 0  -0.16 0 0  -0.12 0 0  -0.07999999999999996 0 0  -0.04000000000000004 0 0  0 0 0  0.04000000000000004 0 0  0.08000000000000007 0 0  0.1200000000000001 0 0  0.1599999999999999 0 0  0.2 0 0  0.24 0 0  0.28 0 0  0.3200000000000001 0 0  0.3600000000000001 0 0  0.3999999999999999 0 0  0.4399999999999999 0 0  0.48 0 0  0.52 0 0  0.5600000000000001 0 0  0.6000000000000001 0 0  0.6399999999999999 0 0  0.6799999999999999 0 0  0.72 0 0  0.76 0 0  0.8 0 0  0.8400000000000001 0 0  0.8799999999999999 0 0  0.9199999999999999 0 0  0.96 0 0  1 0 0  -1 0.016 0  -0.96 0.016 0  -0.92 0.016 0  -0.88 0.016 0  -0.84 0.016 0  -0.8 0.016 0  -0.76 0.016 0  -0.72 0.016 0  -0.6799999999999999 0.016 0  -0.64 0.016 0  -0.6 0.016 0  -0.5600000000000001 0.016 0  -0.52 0.016 0  -0.48 0.016 0  -0.4399999999999999 0.016 0  -0.4 0.016 0  -0.36 0.016 0  -0.32 0.016 0  -0.28 0.016 0  -0.24 0.016 0  -0.2 0.016 0  -0.16 0.016 0  -0.12 0.016 0  -0.07999999999999996 0.016 0  -0.04000000000000004 0.016 0  0 0.016 0  0.04000000000000004 0.016 0  0.08000000000000007 0.016 0  0.1200000000000001 0.016 0  0.1599999999999999 0.016 0  0.2 0.016 0  0.24 0.016 0  0.28 0.016 0  0.3200000000000001 0.016 0  0.3600000000000001 0.016 0  0.3999999999999999 0.016 0  0.4399999999999999 0.016 0  0.48 0.016 0  0.52 0.016 0  0.5600000000000001 0.016 0  0.6000000000000001 0.016 0  0.6399999999999999 0.016 0  0.6799999999999999 0.016 0  0.72 0.016 0  0.76 0.016 0  0.8 0.016 0  0.8400000000000001 0.016 0  0.8799999999999999 0.016 0  0.9199999999999999 0.016 0  0.96 0.016 0  1 0.016 0  -1 0.032 0  -0.96 0.032 0  -0.92 0.032 0  -0.88 0.032 0  -0.84 0.032 0  -0.8 0.032 0  -0.76 0.032 0  -0.72 0.032 0  -0.6799999999999999 0.032 0  -0.64 0.032 0  -0.6 0.032 0  -0.5600000000000001 0.032 0  -0.52 0.032 0  -0.48 0.032 0  -0.4399999999999999 0.032 0  -0.4 0.032 0  -0.36 0.032 0  -0.32 0.032 0  -0.28 0.032 0  -0.24 0.032 0  -0.2 0.032 0  -0.16 0.032 0  -0.12 0.032 0  -0.07999999999999996 0.032 0  -0.04000000000000004 0.032 0  0 0.032 0  0.04000000000000004 0.032 0  0.08000000000000007 0.032 0  0.1200000000000001 0.032 0  0.1599999999999999 0.032 0  0.2 0.032 0  0.24 0.032 0  0.28 0.032 0  0.3200000000000001 0.032 0  0.3600000000000001 0.032 0  0.3999999999999999 0.032 0  0.4399999999999999 0.032 0  0.48 0.032 0  0.52 0.032 0  0.5600000000000001 0.032 0  0.6000000000000001 0.032 0  0.6399999999999999 0.032 0  0.6799999999999999 0.032 0  0.72 0.032 0  0.76 0.032 0  0.8 0.032 0  0.8400000000000001 0.032 0  0.8799999999999999 0.032 0  0.9199999999999999 0.032 0  0.96 0.032 0  1 0.032 0  -1 0.04800000000000001 0  -0.96 0.04800000000000001 0  -0.92 0.04800000000000001 0  -0.88 0.04800000000000001 0  -0.84 0.04800000000000001 0  -0.8 0.04800000000000001 0  -0.76 0.04800000000000001 0  -0.72 0.04800000000000001 0  -0.6799999999999999 0.04800000000000001 0  -0.64 0.04800000000000001 0  -0.6 0.04800000000000001 0  -0.5600000000000001 0.04800000000000001 0  -0.52 0.04800000000000001 0  -0.48 0.04800000000000001 0  -0.4399999999999999 0.04800000000000001 0  -0.4 0.04800000000000001 0  -0.36 0.04800000000000001 0  -0.32 0.04800000000000001 0  -0.28 0.04800000000000001 0  -0.24 0.04800000000000001 0  -0.2 0.04800000000000001 0  -0.16 0.04800000000000001 0  -0.12 0.04800000000000001 0  -0.07999999999999996 0.04800000000000001 0  -0.04000000000000004 0.04800000000000001 0  0 0.04800000000000001 0  0.04000000000000004 0.04800000000000001 0  0.08000000000000007 0.04800000000000001 0  0.1200000000000001 0.04800000000000001 0  0.1599999999999999 0.04800000000000001 0  0.2 0.04800000000000001 0  0.24 0.04800000000000001 0  0.28 0.04800000000000001 0  0.3200000000000001 0.04800000000000001 0  0.3600000000000001 0.04800000000000001 0  0.3999999999999999 0.04800000000000001 0  0.4399999999999999 0.04800000000000001 0  0.48 0.04800000000000001 0  0.52 0.04800000000000001 0  0.5600000000000001 0.04800000000000001 0  0.6000000000000001 0.04800000000000001 0  0.6399999999999999 0.04800000000000001 0  0.6799999999999999 0.04800000000000001 0  0.72 0.04800000000000001 0  0.76 0.04800000000000001 0  0.8 0.04800000000000001 0  0.8400000000000001 0.04800000000000001 0  0.8799999999999999 0.04800000000000001 0  0.9199999999999999 0.04800000000000001 0  0.96 0.04800000000000001 0  1 0.04800000000000001 0  -1 0.064 0  -0.96 0.064 0  -0.92 0.064 0  -0.88 0.064 0  -0.84 0.064 0  -0.8 0.064 0  -0.76 0.064 0  -0.72 0.064 0  -0.6799999999999999 0.064 0  -0.64 0.064 0  -0.6 0.064 0  -0.5600000000000001 0.064 0  -0.52 0.064 0  -0.48 0.064 0  -0.4399999999999999 0.064 0  -0.4 0.064 0  -0.36 0.064 0  -0.32 0.064 0  -0.28 0.064 0  -0.24 0.064 0  -0.2 0.064 0  -0.16 0.064 0  -0.12 0.064 0  -0.07999999999999996 0.064 0  -0.04000000000000004 0.064 0  0 0.064 0  0.04000000000000004 0.064 0  0.08000000000000007 0.064 0  0.1200000000000001 0.064 0  0.1599999999999999 0.064 0  0.2 0.064 0  0.24 0.064 0  0.28 0.064 0  0.3200000000000001 0.064 0  0.3600000000000001 0.064 0  0.3999999999999999 0.064 0  0.4399999999999999 0.064 0  0.48 0.064 0  0.52 0.064 0  0.5600000000000001 0.064 0  0.6000000000000001 0.064 0  0.6399999999999999 0.064 0  0.6799999999999999 0.064 0  0.72 0.064 0  0.76 0.064 0  0.8 0.064 0  0.8400000000000001 0.064 0  0.8799999999999999 0.064 0  0.9199999999999999 0.064 0  0.96 0.064 0  1 0.064 0  -1 0.08 0  -0.96 0.08 0  -0.92 0.08 0  -0.88 0.08 0  -0.84 0.08 0  -0.8 0.08 0  -0.76 0.08 0  -0.72 0.08 0  -0.6799999999999999 0.08 0  -0.64 0.08 0  -0.6 0.08 0  -0.5600000000000001 0.08 0  -0.52 0.08 0  -0.48 0.08 0  -0.4399999999999999 0.08 0  -0.4 0.08 0  -0.36 0.08 0  -0.32 0.08 0  -0.28 0.08 0  -0.24 0.08 0  -0.2 0.08 0  -0.16 0.08 0  -0.12 0.08 0  -0.07999999999999996 0.08 0  -0.04000000000000004 0.08 0  0 0.08 0  0.04000000000000004 0.08 0  0.08000000000000007 0.08 0  0.1200000000000001 0.08 0  0.1599999999999999 0.08 0  0.2 0.08 0  0.24 0.08 0  0.28 0.08 0  0.3200000000000001 0.08 0  0.3600000000000001 0.08 0  0.3999999999999999 0.08 0  0.4399999999999999 0.08 0  0.48 0.08 0  0.52 0.08 0  0.5600000000000001 0.08 0  0.6000000000000001 0.08 0  0.6399999999999999 0.08 0  0.6799999999999999 0.08 0  0.72 0.08 0  0.76 0.08 0  0.8 0.08 0  0.8400000000000001 0.08 0  0.8799999999999999 0.08 0  0.9199999999999999 0.08 0  0.96 0.08 0  1 0.08 0  -1 0.09600000000000002 0  -0.96 0.09600000000000002 0  -0.92 0.09600000000000002 0  -0.88 0.09600000000000002 0  -0.84 0.09600000000000002 0  -0.8 0.09600000000000002 0  -0.76 0.09600000000000002 0  -0.72 0.09600000000000002 0  -0.6799999999999999 0.09600000000000002 0  -0.64 0.09600000000000002 0  -0.6 0.09600000000000002 0  -0.5600000000000001 0.09600000000000002 0  -0.52 0.09600000000000002 0  -0.48 0.09600000000000002 0  -0.4399999999999999 0.09600000000000002 0  -0.4 0.09600000000000002 0  -0.36 0.09600000000000002 0  -0.32 0.09600000000000002 0  -0.28 0.09600000000000002 0  -0.24 0.09600000000000002 0  -0.2 0.09600000000000002 0  -0.16 0.09600000000000002 0  -0.12 0.09600000000000002 0  -0.07999999999999996 0.09600000000000002 0  -0.04000000000000004 0.09600000000000002 0  0 0.09600000000000002 0  0.04000000000000004 0.09600000000000002 0  0.08000000000000007 0.09600000000000002 0  0.1200000000000001 0.09600000000000002 0  0.1599999999999999 0.09600000000000002 0  0.2 0.09600000000000002 0  0.24 0.09600000000000002 0  0.28 0.09600000000000002 0  0.3200000000000001 0.09600000000000002 0  0.3600000000000001 0.09600000000000002 0  0.3999999999999999 0.09600000000000002 0  0.4399999999999999 0.09600000000000002 0  0.48 0.09600000000000002 0  0.52 0.09600000000000002 0  0.5600000000000001 0.09600000000000002 0  0.6000000000000001 0.09600000000000002 0  0.6399999999999999 0.09600000000000002 0  0.6799999999999999 0.09600000000000002 0  0.72 0.09600000000000002 0  0.76 0.09600000000000002 0  0.8 0.09600000000000002 0  0.8400000000000001 0.09600000000000002 0  0.8799999999999999 0.09600000000000002 0  0.9199999999999999 0.09600000000000002 0  0.96 0.09600000000000002 0  1 0.09600000000000002 0  -1 0.112 0  -0.96 0.112 0  -0.92 0.112 0  -0.88 0.112 0  -0.84 0.112 0  -0.8 0.112 0  -0.76 0.112 0  -0.72 0.112 0  -0.6799999999999999 0.112 0  -0.64 0.112 0  -0.6 0.112 0  -0.5600000000000001 0.112 0  -0.52 0.112 0  -0.48 0.112 0  -0.4399999999999999 0.112 0  -0.4 0.112 0  -0.36 0.112 0  -0.32 0.112 0  -0.28 0.112 0  -0.24 0.112 0  -0.2 0.112 0  -0.16 0.112 0  -0.12 0.112 0  -0.07999999999999996 0.112 0  -0.04000000000000004 0.112 0  0 0.112 0  0.04000000000000004 0.112 0  0.08000000000000007 0.112 0  0.1200000000000001 0.112 0  0.1599999999999999 0.112 0  0.2 0.112 0  0.24 0.112 0  0.28 0.112 0  0.3200000000000001 0.112 0  0.3600000000000001 0.112 0  0.3999999999999999 0.112 0  0.4399999999999999 0.112 0  0.48 0.112 0  0.52 0.112 0  0.5600000000000001 0.112 0  0.6000000000000001 0.112 0  0.6399999999999999 0.112 0  0.6799999999999999 0.112 0  0.72 0.112 0  0.76 0.112 0  0.8 0.112 0  0.8400000000000001 0.112 0  0.8799999999999999 0.112 0  0.9199999999999999 0.112 0  0.96 0.112 0  1 0.112 0  -1 0.128 0  -0.96 0.128 0  -0.92 0.128 0  -0.88 0.128 0  -0.84 0.128 0  -0.8 0.128 0  -0.76 0.128 0  -0.72 0.128 0  -0.6799999999999999 0.128 0  -0.64 0.128 0  -0.6 0.128 0  -0.5600000000000001 0.128 0  -0.52 0.128 0  -0.48 0.128 0  -0.4399999999999999 0.128 0  -0.4 0.128 0  -0.36 0.128 0  -0.32 0.128 0  -0.28 0.128 0  -0.24 0.128 0  -0.2 0.128 0  -0.16 0.128 0  -0.12 0.128 0  -0.07999999999999996 0.128 0  -0.04000000000000004 0.128 0  0 0.128 0  0.04000000000000004 0.128 0  0.08000000000000007 0.128 0  0.1200000000000001 0.128 0  0.1599
[...]
<PointData  Scalars="f_100"> 
<DataArray  type="Float64"  Name="f_100"  format="ascii">6.0000000000000002e-05  5.4288781256661780e-05  5.3038026049756518e-05  5.2644445245148862e-05  5.2514221025527422e-05  5.2462845774343221e-05  5.2429961412108638e-05  5.2393437940931957e-05  5.2342233896934632e-05  5.2267699982492508e-05  5.2160768613402622e-05  5.2011100123295038e-05  5.1806972474385536e-05  5.1535546339805801e-05  5.1183351698656601e-05  5.0736567537280379e-05  5.0177809076290357e-05  4.9451338492133978e-05  4.8248655422714409e-05  3.9756777633219282e-05  2.9385344516781555e-05  2.4625416903944888e-05  2.1345035737993768e-05  1.8875679163030029e-05  1.6937919372654372e-05  1.5377863960146438e-05  1.4103041707949073e-05  1.3067224228234279e-05  1.2293116255069628e-05  1.1979682080789176e-05  1.2875969604788630e-05  1.8039405850576908e-05  2.5456780558276382e-05  2.7103592531020727e-05  2.6743551084926283e-05  2.5699254284920505e-05  2.4425270819183648e-05  2.3060112051814709e-05  2.1643612899168557e-05  2.0187916516860647e-05  1.8700029187726899e-05  1.7188738037457549e-05  1.5666260882418023e-05  1.4147834242388469e-05  1.2649988211380077e-05  1.1186702706443875e-05  9.7595461470109412e-06  8.3286957702943000e-06  6.7247241548976977e-06  4.3954683924353150e-06  0.0000000000000000e+00  6.0000000000000002e-05  5.4562862625833771e-05  5.3305399862612286e-05  5.2908825685569249e-05  5.2777637617589383e-05  5.2725932646067107e-05  5.2692900224829112e-05  5.2656256488671921e-05  5.2604896409212043e-05  5.2530130593772443e-05  5.2422852979065425e-05  5.2272679730930007e-05  5.2067836752781546e-05  5.1795424871713191e-05  5.1441908300698189e-05  5.0993399742148960e-05  5.0432472699029172e-05  4.9703678743360393e-05  4.8475203138034306e-05  4.0784286345101453e-05  3.0838151662898445e-05  2.5846287007690085e-05  2.2389854970459296e-05  1.9790178876888828e-05  1.7751681621772669e-05  1.6111373419923681e-05  1.4771108284645659e-05  1.3680714320559555e-05  1.2859655348991874e-05  1.2503085510243916e-05  1.3353285519964563e-05  1.8227493095520453e-05  2.5570199923337665e-05  2.7242070247786830e-05  2.6883143214844792e-05  2.5834528873024588e-05  2.4554529116760144e-05  2.3182753214755384e-05  2.1759344316146893e-05  2.0296522675028997e-05  1.8801317003749814e-05  1.7282538449390328e-05  1.5752447355150087e-05  1.4226344260258158e-05  1.2720842400955844e-05  1.1250020299164900e-05  9.8155599448802918e-06  8.3777781549589699e-06  6.7674432598051922e-06  4.4327602152353086e-06  0.0000000000000000e+00  6.0000000000000002e-05  5.4832898762350994e-05  5.3571953085709935e-05  5.3173849655708665e-05  5.3042159112547232e-05  5.2990270078871870e-05  5.2957135478313668e-05  5.2920385694289964e-05  5.2868873606969963e-05  5.2793876438930858e-05  5.2686251665868717e-05  5.2535571793844902e-05  5.2330010674292344e-05  5.2056609143400581e-05  5.1701765714462504e-05  5.1251529327651881e-05  5.0688455537060133e-05  4.9957589593394841e-05  4.8709825271192161e-05  4.1724803977370202e-05  3.2278717718668370e-05  2.7064281397885384e-05  2.3443344857605152e-05  2.0719075303337146e-05  1.8582895427535680e-05  1.6863990084684923e-05  1.5459081945128335e-05  1.4314279327362866e-05  1.3445759048611458e-05  1.3044250963024055e-05  1.3840767716948041e-05  1.8456327424060694e-05  2.5700416188217720e-05  2.7386685825561460e-05  2.7025189659469559e-05  2.5971054423919468e-05  2.4684637075030370e-05  2.3306095090684377e-05  2.1875706063098081e-05  2.0405712861994893e-05  1.8903149545878581e-05  1.7376845949029930e-05  1.5839103357822425e-05  1.4305286008834022e-05  1.2792090457848035e-05  1.1313694310958575e-05  9.8718938218222824e-06  8.4271445540849267e-06  6.8103876140880357e-06  4.4699457085898919e-06  0.0000000000000000e+00  6.0000000000000002e-05  5.5098093815628822e-05  5.3837645032488061e-05  5.3439510304244026e-05  5.3307787887714228e-05  5.3255863360131939e-05  5.3222673391905096e-05  5.3185832089670759e-05  5.3134172145371901e-05  5.3058944244153501e-05  5.2950971462642866e-05  5.2799783168808343e-05  5.2593501171890158e-05  5.2319106169674491e-05  5.1962931028291925e-05  5.1510963358867417e-05  5.0945763886482675e-05  5.0213059172836521e-05  4.8952016260661649e-05  4.2590078299263141e-05  3.3671188505554309e-05  2.8272953372933164e-05  2.4502697906646652e-05  2.1660922537188358e-05  1.9430884606564705e-05  1.7635526608851255e-05  1.6167103885039110e-05  1.4968293301106863e-05  1.4051992041366172e-05  1.3603993673324416e-05  1.4340753647148164e-05  1.8720866526449492e-05  2.5847696580634047e-05  2.7537530837326103e-05  2.7169728281697580e-05  2.6108845534094815e-05  2.4815601795570383e-05  2.3430142372797970e-05  2.1992702003245616e-05  2.0515490578168630e-05  1.9005530067514152e-05  1.7471663547877247e-05  1.5926231632119972e-05  1.4384661923933142e-05  1.2863734470632209e-05  1.1377726416263204e-05  9.9285488747291572e-06  8.4767950566600984e-06  6.8535556627192328e-06  4.5070151368633240e-06  0.0000000000000000e+00  6.0000000000000002e-05  5.5357889632897513e-05  5.4102451242232238e-05  5.3705804913519742e-05  5.3574527639256369e-05  5.3522718213324263e-05  5.3489520340118035e-05  5.3452602269848525e-05  5.3400798709197986e-05  5.3325340748754403e-05  5.3217019158633138e-05  5.3065320699811035e-05  5.2858315150850459e-05  5.2582922920926876e-05  5.2225411268365184e-05  5.1771708823358762e-05  5.1204403965258644e-05  5.0470080322881487e-05  4.9201265510278828e-05  4.3390567221824269e-05  3.4998285610193379e-05  2.9467665473656650e-05  2.5565500691610348e-05  2.2614468616458023e-05  2.0295100661292979e-05  1.8425892669305940e-05  1.6895394228439088e-05  1.5643193740512964e-05  1.4678958811129995e-05  1.4183112707770669e-05  1.4855213648516375e-05  1.9017517690825274e-05  2.6012236357064099e-05  2.7694673335307124e-05  2.7316786978065604e-05  2.6247913577927082e-05  2.4947429361251587e-05  2.3554899418499912e-05  2.2110335869905141e-05  2.0625859254930425e-05  1.9108461773388750e-05  1.7566994221338068e-05  1.6013834898377373e-05  1.4464474439773781e-05  1.2935776552650221e-05  1.1442118352489365e-05  9.9855263328719820e-06  8.5267300470794003e-06  6.8969465568844243e-06  4.5439650210183358e-06  0.0000000000000000e+00  6.0000000000000002e-05  5.5611922463324890e-05  5.4366361366286139e-05  5.3972734671566778e-05  5.3842383313455891e-05  5.3790840777024369e-05  5.3757682847052035e-05  5.3720702892855445e-05  5.3668760015191679e-05  5.3593072709348166e-05  5.3484401549569926e-05  5.3332191226352377e-05  5.3124459499631217e-05  5.2848066336920142e-05  5.2489213415326344e-05  5.2033772648079524e-05  5.1464381905029709e-05  5.0728649172682521e-05  4.9457071094228287e-05  4.4135441908117341e-05  3.6253526181688627e-05  3.0644704710948369e-05  2.6629615091105320e-05  2.3578602681220377e-05  2.1175089703524966e-05  1.9235072701258236e-05  1.7644237145372024e-05  1.6339473472357628e-05  1.5327305755034088e-05  1.4782416860034964e-05  1.5385848706545047e-05  1.9343739013539845e-05  2.6194160583259276e-05  2.7858158217358418e-05  2.7466384174057805e-05  2.6388266885127827e-05  2.5080124896009073e-05  2.3680370273372090e-05  2.2228611280487096e-05  2.0736822266044519e-05  1.9211947829858602e-05  1.7662840917488327e-05  1.6101915861865616e-05  1.4544725991705749e-05  1.3008218839936015e-05  1.1506871911016082e-05  1.0042827536635403e-05  8.5769501574070321e-06  6.9405600541386866e-06  4.5807969298584040e-06  0.0000000000000000e+00  6.0000000000000002e-05  5.5859987029258837e-05  5.4629377679946787e-05  5.4240304486979171e-05  5.4111361049826034e-05  5.4060237587539297e-05  5.4027167581790197e-05  5.3990140679618768e-05  5.3938062814022000e-05  5.3862146903318598e-05  5.3753125442701852e-05  5.3600401590299509e-05  5.3391941098867385e-05  5.3114543338175782e-05  5.2754344418028213e-05  5.2297161713461386e-05  5.1725703747624151e-05  5.0988764003162642e-05  4.9718949388746405e-05  4.4832669614586958e-05  3.7436563704424534e-05  3.1801027456392489e-05  2.7693145640510899e-05  2.4552336998952881e-05  2.2070480831835479e-05  2.0063118200462429e-05  1.8413976095996946e-05  1.7057678963080199e-05  1.5997724780086577e-05  1.5402740372862525e-05  1.5934164002887036e-05  1.9697753921373235e-05  2.6393527977370313e-05  2.8028007496852047e-05  2.7618529238981184e-05  2.6529910887583537e-05  2.5213692614278899e-05  2.3806558691003294e-05  2.2347531748071456e-05  2.0848382937081341e-05  1.9315991373389130e-05  1.7759206564290938e-05  1.6190477217959576e-05  1.4625419018444270e-05  1.3081063489492188e-05  1.1571988929766471e-05  1.0100453920004757e-05  8.6274562279802896e-06  6.9843964369048546e-06  4.6175164850027832e-06  0.0000000000000000e+00  6.0000000000000002e-05  5.6102006760866436e-05  5.4891514037038704e-05  5.4508522834238659e-05  5.4381468133023014e-05  5.4330915564235371e-05  5.4297981354514353e-05  5.4260922413867990e-05  5.4208713891919355e-05  5.4132570131704443e-05  5.4023197660973331e-05  5.3869958641570072e-05  5.3660766828812896e-05  5.3382360835389303e-05  5.3020811204899624e-05  5.2561882865177884e-05  5.1988375444778210e-05  5.1250424351958614e-05  4.9986441503627839e-05  4.5489132623592925e-05  3.8550411104387947e-05  3.2934229187697703e-05  2.8754439866330699e-05  2.5534806630793115e-05  2.2980986008434314e-05  2.0910147987103201e-05  1.9205014662306058e-05  1.7798412184840307e-05  1.6690957667059421e-05  1.6044953131959386e-05  1.6501525048235378e-05  2.0078346585892869e-05  2.6610335675972788e-05  2.8204220505178522e-05  2.7773222839712584e-05  2.6672848243271306e-05  2.5348135862673209e-05  2.3933468149639740e-05  2.2467100691055117e-05  2.0960544553222233e-05  1.9420595517560371e-05  1.7856094075542725e-05  1.6279521656388948e-05  1.4706555963900119e-05  1.3154312677860183e-05  1.1637471287087241e-05  1.0158406996141817e-05  8.6782492748724710e-06  7.0284564455066790e-06  4.6541325441380616e-06  0.0000000000000000e+00  6.0000000000000002e-05  5.6338009185476566e-05  5.5152795129616002e-05  5.4777401620153219e-05  5.4652712951110995e-05  5.4602881996805096e-05  5.4570131113122063e-05  5.4533054942022165e-05  5.4480720072033616e-05  5.4404349221602153e-05  5.4294625046496466e-05  5.4140869242845576e-05  5.3930943575503715e-05  5.3651525737219545e-05  5.3288620693355703e-05  5.2827942923994453e-05  5.2252402860018681e-05  5.1513630319667032e-05  5.0259117237740791e-05  4.6110758380155520e-05  3.9599798578172914e-05  3.4042565005127676e-05  2.9812100497919372e-05  2.6525277977344191e-05  2.3906406120113167e-05  2.1776352879227100e-05  2.0017820525046940e-05  1.8562334503812469e-05  1.7407800886622535e-05  1.6709968004501811e-05  1.7089201119295926e-05  2.0484715165384804e-05  2.6844524191489696e-05  2.8386774053072048e-05  2.7930457249197312e-05  2.6817078943446999e-05  2.5483457155958661e-05  2.4061101866435364e-05  2.2587321441279436e-05  2.1073310365753659e-05  1.9525763358861921e-05  1.7953506355780448e-05  1.6369051864738594e-05  1.4788139278681551e-05  1.3227968599936272e-05  1.1703320896704394e-05  1.0216688345502602e-05  8.7293304629944838e-06  7.0727412227170692e-06  4.6906565328983048e-06  0.0000000000000000e+00  6.0000000000000002e-05  5.6568105626470323e-05  5.5413255950525503e-05  5.5046956064368144e-05  5.4925104958225799e-05  5.4876144533868348e-05  5.4843623940173667e-05  5.4806545173034737e-05  5.4754088215555118e-05  5.4677491028168184e-05  5.4567414463440735e-05  5.4413140273486127e-05  5.4202478235867459e-05  5.3922044956739486e-05  5.3557779797597258e-05  5.3095348694044829e-05  5.2517791771971059e-05  5.1778382042725951e-05  5.0536577148171518e-05  4.6702647240539621e-05  4.0590214688256392e-05  3.5124956746128487e-05  3.0865000937599530e-05  2.7523161574406084e-05  2.4846640355683869e-05  2.2662002855257959e-05  2.0852931267557118e-05  1.9350171773428153e-05  1.8149110737951231e-05  1.7398746833394093e-05  1.7698399352153613e-05  2.0916366449567310e-05  2.7095982106786396e-05  2.8575622573342356e-05  2.8090216622754240e-05  2.6962600408092178e-05  2.5619658208995673e-05  2.4189462809928874e-05  2.2708197250969319e-05  2.1186683597502430e-05  1.9631497981498579e-05  1.8051446304333744e-05  1.6459070531334380e-05  1.4870171421329542e-05  1.3302033467993162e-05  1.1769539703567167e-05  1.0275299606046955e-05  8.7807010838301154e-06  7.1172522674290021e-06  4.7271019005865243e-06  0.0000000000000000e+00  6.0000000000000002e-05  5.6792474503690769e-05  5.5672941383792626e-05  5.5317204588621237e-05  5.5198654640078253e-05  5.5150711172425215e-05  5.5118467050033302e-05  5.5081400078178489e-05  5.5028825222632411e-05  5.4952002436288772e-05  5.4841572800442514e-05  5.4686778632787110e-05  5.4475377721965714e-05  5.4193925416784938e-05  5.3828295435084071e-05  5.3364106969815553e-05  5.2784547878594131e-05  5.2044679303032484e-05  5.0818453205812438e-05  4.7269190959729059e-05  4.1527358019265639e-05  3.6180971392216891e-05  3.1912300143775958e-05  2.8528026619516492e-05  2.5801697333806509e-05  2.3567455658587210e-05  2.1710961290996877e-05  2.0162720195356139e-05  1.8915808762626759e-05  1.8112305922410372e-05  1.8330291918326730e-05  2.1373040197686010e-05  2.7364550238978059e-05  2.8770698263894104e-05  2.8252477252909335e-05  2.7109407573620122e-05  2.5756739965965284e-05  2.4318553711252037e-05  2.2829731298753302e-05  2.1300667447417877e-05  1.9737802461388260e-05  1.8149916818679384e-05  1.6549580347626079e-05  1.4952654859336376e-05  1.3376509510873590e-05  1.1836129680424968e-05  1.0334242465169012e-05  8.8323625369773752e-06  7.1619913955557032e-06  4.7634836790168720e-06  0.0000000000000000e+00  6.0000000000000002e-05  5.7011347642318341e-05  5.5931905868659005e-05  5.5588168710698885e-05  5.5473373481058399e-05  5.5426590247777129e-05  5.5394667786095747e-05  5.5357626690758138e-05  5.5304938033115611e-05  5.5227890361974007e-05  5.5117106972618346e-05  5.4961791242693969e-05  5.4749648964521906e-05  5.4467174054396010e-05  5.4100174531917307e-05  5.3634224542071753e-05  5.3052676802015140e-05  5.2312521248737346e-05  5.1104408411554004e-05  4.7814178968086993e-05  4.2416834658155350e-05  3.7210774617451479e-05  3.2953455026924507e-05  2.9539615837138812e-05  2.6771707112172769e-05  2.4493166265738632e-05  2.2592609448775788e-05  2.1000852712759556e-05  1.9708887420829134e-05  1.8851721459947813e-05  1.8986038066729711e-05  2.1854654812223820e-05  2.7650025127773893e-05  2.8971911246522417e-05  2.8417207811548662e-05  2.7257492976037447e-05  2.5894702627941550e-05  2.4448377074473791e-05  2.2951926694983094e-05  2.1415265094469611e-05  1.9844679869501461e-05  1.8248920797223600e-05  1.6640584010158890e-05  1.5035592069988395e-05  1.3451398973327756e-05  1.1903092825009057e-05  1.0393518653043121e-05  8.8843163148140430e-06  7.2069607066627467e-06  4.7998181271583253e-06  0.0000000000000000e+00  6.0000000000000002e-05  5.7224999093550438e-05  5.6190213098965763e-05  5.5859872940018924e-05  5.5749273931961218e-05  5.5703790423613401e-05  5.5672233618014817e-05  5.5635232105741363e-05  5.5582433627149003e-05  5.5505161753522297e-05  5.5394023923251494e-05  5.5238185050070565e-05  5.5025298915861406e-05  5.4741797824512093e-05  5.4373424027324615e-05  5.3905708202916747e-05  5.3322184093763558e-05  5.2581906204560634e-05  5.1394135665526003e-05  4.8340891711891807e-05  4.3264002021348324e-05  3.8215068826192439e-05  3.3988229435354579e-05  3.0557859916557393e-05  2.7756933586139270e-05  2.5439696891810957e-05  2.3498667181489754e-05  2.1865525807233869e-05  2.0529416029000119e-05  1.9618135111483231e-05  1.9666802358611864e-05  2.2361268375337919e-05  2.7952161783641289e-05  2.9179149754070557e-05  2.8584369586578907e-05  2.7406846832101470e-05  2.6033545679648768e-05  2.4578935186403432e-05  2.3074786486529562e-05  2.1530479700998791e-05  1.9952133274664655e-05  1.8348461141616671e-05  1.6732084222208490e-05  1.5118985541066050e-05  1.3526704115470946e-05  1.1970431157713101e-05  1.0453129937133374e-05  8.9365639897257461e-06  7.2521625551482058e-06  4.8361224471040444e-06  0.0000000000000000e+00  6.0000000000000002e-05  5.7433736051222654e-05  5.6447935731523940e-05  5.6132344672504639e-05  5.6026369377566276e-05  5.5982320682026215e-05  5.5951172138866963e-05  5.5914223479301966e-05  5.5861319025633255e-05  5.5783823592494257e-05  5.5672330625209012e-05  5.5515967028600296e-05  5.5302334552367966e-05  5.5017803703052744e-05  5.4648050877407867e-05  5.4178564750144587e-05  5.3593075240288561e-05  5.2852831553443503e-05  5.1687356115145763e-05  4.8852181534029392e-05  4.4073899023448436e-05  3.9195024838939512e-05  3.5016699443652395e-05  3.1582891117920187e-05  2.8757786992541630e-05  2.6407727343624839e-05  2.4430027026972442e-05  2.2757786627284963e-05  2.1378546960913753e-05  2.0412759891885134e-05  2.0373770093616832e-05  2.2893050774283503e-05  2.8270675681461508e-05  2.9392280356184647e-05  2.8753916718946756e-05  2.7557457120476570e-05  2.6173267916064342e-05  2.4710230126109597e-05  2.3198313661198147e-05  2.1646314415635738e-05  2.0060165745928302e-05  1.8448540758685226e-05  1.6824083695141272e-05  1.5202837771428334e-05  1.3602427212341615e-05  1.2038146719684996e-05  1.0513078117659486e-05  8.9891072034337097e-06  7.2975995250345743e-06  4.8724145592661269e-06  0.0000000000000000e+00  6.0000000000000002e-05  5.7637891516220511e-05  5.6705155086006855e-05  5.6405614082981804e-05  5.6304674103476816e-05  5.6262190313270742e-05  5.6231491062200063e-05  5.6194608028271318e-05  5.6141601290574206e-05  5.6063882894527739e-05  5.5952034082136590e-05  5.5795144180384771e-05  5.5580762876542366e-05  5.5295198689493960e-05  5.4924062058285253e-05  5.4452800991016840e-05  5.3865355668703805e-05  5.3125293674405985e-05  5.1983817153948491e-05  4.9350542165404328e-05  4.4851226469589150e-05  4.0152214283399745e-05  3.6039255124965979e-05  3.2615055859392773e-05  2.9774836352298096e-05  2.7398065606140557e-05  2.5387691430425765e-05  2.3678780405931747e-05  2.2257522113233372e-05  2.1236886366323703e-05  2.1108160685179557e-05  2.3450263854446251e-05  2.8605244015768276e-05  2.9611148232088471e-05  2.8925796444747882e-05  2.7709309664452411e-05  2.6313867469382337e-05  2.4842263774357435e-05  2.3322511151878563e-05  2.1762772375875839e-05  2.0168780354582006e-05  1.8549162562052674e-05  1.6916585149550185e-05  1.5287151271503578e-05  1.3678570553543293e-05  1.2106241571257649e-05  1.0573365023847905e-05  9.0419476580407174e-06  7.3432744076309418e-06  4.9087129266779336e-06  0.0000000000000000e+00  6.0000000000000002e-05  5.7837818417253966e-05  5.6961960825427697e-05  5.6679714013773932e-05  5.6584203261765891e-05  5.6543408905131079e-05  5.6513198218929347e-05  5.6476393029496114e-05  5.6423287525332819e-05  5.6345346710020791e-05  5.6233141329470359e-05  5.6075723537294139e-05  5.5860590918734399e-05  5.5573989809029828e-05  5.5201464568736591e-05  5.4728423745571762e-05  5.4139030752740792e-05  5.3399287924147172e-05  5.2283290200236462e-05  4.9838168138899206e-05  4.5600356016245527e-05  4.1088547389350559e-05  3.7056599323154458e-05  3.3654926236159155e-05  3.0808821755691001e-05  2.8411658590064672e-05  2.6372781807036432e-05  2.4629758140612888e-05  2.3167679634695571e-05  2.2091889197868788e-05  2.1871239567291963e-05  2.4033247405085769e-05  2.8955506250800747e-05  2.9835577497478401e-05  2.9099949346211063e-05  2.7862388217425148e-05  2.6455341836733219e-05  2.4975037823121649e-05  2.3447381840520883e-05  2.1879856710388986e-05  2.0277980175884569e-05  1.8650329473505450e-05  1.7009591316207681e-05  1.5371928563704541e-05  1.3755136442956483e-05  1.2174717790658848e-05  1.0633992510827207e-05  9.0950871084807562e-06  7.3891901814768120e-06  4.9450364199383467e-06  0.0000000000000000e+00  6.0000000000000002e-05  5.8033884944058338e-05  5.7218450610972933e-05  5.6954679858522341e-05  5.6864972835093952e-05  5.6825986331789124e-05  5.6796301554053026e-05  5.6759585819101775e-05  5.6706384874788373e-05  5.6628222124704305e-05  5.6515659435298031e-05  5.6357712162113565e-05  5.6141825738606794e-05  5.585418411439443