<?xml version="1.0"?>
<VTKFile type="UnstructuredGrid"  version="0.1"  >
<UnstructuredGrid>
<Piece  NumberOfPoints="2601" NumberOfCells="5000">
<Points>
<DataArray  type="Float64"  NumberOfComponents="3"  format="ascii">-1 0 0  -0.96 0 0  -0.92 0 0  -0.88 0 0  -0.84 0 0  -0.8 0 0  -0.76 0 0  -0.72 0 0  -0.6799999999999999 0 0  -0.64 0 0  -0.6 0 0  -0.5600000000000001 0 0  -0.52 0 0  -0.48 0 0  -0.4399999999999999 0 0  -0.4 0 0  -0.36 0 0  -0.32 0 0  -0.28 0 0  -0.24 0 0  -0.2 0 0  -0.16 0 0  -0.12 0 0  -0.07999999999999996 0 0  -0.04000000000000004 0 0  0 0 0  0.04000000000000004 0 0  0.08000000000000007 0 0  0.1200000000000001 0 0  0.1599999999999999 0 0  0.2 0 0  0.24 0 0  0.28 0 0  0.3200000000000001 0 0  0.3600000000000001 0 0  0.3999999999999999 0 0  0.4399999999999999 0 0  0.48 0 0  0.52 0 0  0.5600000000000001 0 0  0.6000000000000001 0 0  0.6399999999999999 0 0  0.6799999999999999 0 0  0.72 0 0  0.76 0 0  0.8 0 0  0.8400000000000001 0 0  0.8799999999999999 0 0  0.9199999999999999 0 0  0.96 0 0  1 0 0  -1 0.016 0  -0.96 0.016 0  -0.92 0.016 0  -0.88 0.016 0  -0.84 0.016 0  -0.8 0.016 0  -0.76 0.016 0  -0.72 0.016 0  -0.6799999999999999 0.016 0  -0.64 0.016 0  -0.6 0.016 0  -0.5600000000000001 0.016 0  -0.52 0.016 0  -0.48 0.016 0  -0.4399999999999999 0.016 0  -0.4 0.016 0  -0.36 0.016 0  -0.32 0.016 0  -0.28 0.016 0  -0.24 0.016 0  -0.2 0.016 0  -0.16 0.016 0  -0.12 0.016 0  -0.07999999999999996 0.016 0  -0.04000000000000004 0.016 0  0 0.016 0  0.04000000000000004 0.016 0  0.08000000000000007 0.016 0  0.1200000000000001 0.016 0  0.1599999999999999 0.016 0  0.2 0.016 0  0.24 0.016 0  0.28 0.016 0  0.3200000000000001 0.016 0  0.3600000000000001 0.016 0  0.3999999999999999 0.016 0  0.4399999999999999 0.016 0  0.48 0.016 0  0.52 0.016 0  0.5600000000000001 0.016 0  0.6000000000000001 0.016 0  0.6399999999999999 0.016 0  0.6799999999999999 0.016 0  0.72 0.016 0  0.76 0.016 0  0.8 0.016 0  0.8400000000000001 0.016 0  0.8799999999999999 0.016 0  0.9199999999999999 0.016 0  0.96 0.016 0  1 0.016 0  -1 0.032 0  -0.96 0.032 0  -0.92 0.032 0  -0.88 0.032 0  -0.84 0.032 0  -0.8 0.032 0  -0.76 0.032 0  -0.72 0.032 0  -0.6799999999999999 0.032 0  -0.64 0.032 0  -0.6 0.032 0  -0.5600000000000001 0.032 0  -0.52 0.032 0  -0.48 0.032 0  -0.4399999999999999 0.032 0  -0.4 0.032 0  -0.36 0.032 0  -0.32 0.032 0  -0.28 0.032 0  -0.24 0.032 0  -0.2 0.032 0  -0.16 0.032 0  -0.12 0.032 0  -0.07999999999999996 0.032 0  -0.04000000000000004 0.032 0  0 0.032 0  0.04000000000000004 0.032 0  0.08000000000000007 0.032 0  0.1200000000000001 0.032 0  0.1599999999999999 0.032 0  0.2 0.032 0  0.24 0.032 0  0.28 0.032 0  0.3200000000000001 0.032 0  0.3600000000000001 0.032 0  0.3999999999999999 0.032 0  0.4399999999999999 0.032 0  0.48 0.032 0  0.52 0.032 0  0.5600000000000001 0.032 0  0.6000000000000001 0.032 0  0.6399999999999999 0.032 0  0.6799999999999999 0.032 0  0.72 0.032 0  0.76 0.032 0  0.8 0.032 0  0.8400000000000001 0.032 0  0.8799999999999999 0.032 0  0.9199999999999999 0.032 0  0.96 0.032 0  1 0.032 0  -1 0.04800000000000001 0  -0.96 0.04800000000000001 0  -0.92 0.04800000000000001 0  -0.88 0.04800000000000001 0  -0.84 0.04800000000000001 0  -0.8 0.04800000000000001 0  -0.76 0.04800000000000001 0  -0.72 0.04800000000000001 0  -0.6799999999999999 0.04800000000000001 0  -0.64 0.04800000000000001 0  -0.6 0.04800000000000001 0  -0.5600000000000001 0.04800000000000001 0  -0.52 0.04800000000000001 0  -0.48 0.04800000000000001 0  -0.4399999999999999 0.04800000000000001 0  -0.4 0.04800000000000001 0  -0.36 0.04800000000000001 0  -0.32 0.04800000000000001 0  -0.28 0.04800000000000001 0  -0.24 0.04800000000000001 0  -0.2 0.04800000000000001 0  -0.16 0.04800000000000001 0  -0.12 0.04800000000000001 0  -0.07999999999999996 0.04800000000000001 0  -0.04000000000000004 0.04800000000000001 0  0 0.04800000000000001 0  0.04000000000000004 0.04800000000000001 0  0.08000000000000007 0.04800000000000001 0  0.1200000000000001 0.04800000000000001 0  0.1599999999999999 0.04800000000000001 0  0.2 0.04800000000000001 0  0.24 0.04800000000000001 0  0.28 0.04800000000000001 0  0.3200000000000001 0.04800000000000001 0  0.3600000000000001 0.04800000000000001 0  0.3999999999999999 0.04800000000000001 0  0.4399999999999999 0.04800000000000001 0  0.48 0.04800000000000001 0  0.52 0.04800000000000001 0  0.5600000000000001 0.04800000000000001 0  0.6000000000000001 0.04800000000000001 0  0.6399999999999999 0.04800000000000001 0  0.6799999999999999 0.04800000000000001 0  0.72 0.04800000000000001 0  0.76 0.04800000000000001 0  0.8 0.04800000000000001 0  0.8400000000000001 0.04800000000000001 0  0.8799999999999999 0.04800000000000001 0  0.9199999999999999 0.04800000000000001 0  0.96 0.04800000000000001 0  1 0.04800000000000001 0  -1 0.064 0  -0.96 0.064 0  -0.92 0.064 0  -0.88 0.064 0  -0.84 0.064 0  -0.8 0.064 0  -0.76 0.064 0  -0.72 0.064 0  -0.6799999999999999 0.064 0  -0.64 0.064 0  -0.6 0.064 0  -0.5600000000000001 0.064 0  -0.52 0.064 0  -0.48 0.064 0  -0.4399999999999999 0.064 0  -0.4 0.064 0  -0.36 0.064 0  -0.32 0.064 0  -0.28 0.064 0  -0.24 0.064 0  -0.2 0.064 0  -0.16 0.064 0  -0.12 0.064 0  -0.07999999999999996 0.064 0  -0.04000000000000004 0.064 0  0 0.064 0  0.04000000000000004 0.064 0  0.08000000000000007 0.064 0  0.1200000000000001 0.064 0  0.1599999999999999 0.064 0  0.2 0.064 0  0.24 0.064 0  0.28 0.064 0  0.3200000000000001 0.064 0  0.3600000000000001 0.064 0  0.3999999999999999 0.064 0  0.4399999999999999 0.064 0  0.48 0.064 0  0.52 0.064 0  0.5600000000000001 0.064 0  0.6000000000000001 0.064 0  0.6399999999999999 0.064 0  0.6799999999999999 0.064 0  0.72 0.064 0  0.76 0.064 0  0.8 0.064 0  0.8400000000000001 0.064 0  0.8799999999999999 0.064 0  0.9199999999999999 0.064 0  0.96 0.064 0  1 0.064 0  -1 0.08 0  -0.96 0.08 0  -0.92 0.08 0  -0.88 0.08 0  -0.84 0.08 0  -0.8 0.08 0  -0.76 0.08 0  -0.72 0.08 0  -0.6799999999999999 0.08 0  -0.64 0.08 0  -0.6 0.08 0  -0.5600000000000001 0.08 0  -0.52 0.08 0  -0.48 0.08 0  -0.4399999999999999 0.08 0  -0.4 0.08 0  -0.36 0.08 0  -0.32 0.08 0  -0.28 0.08 0  -0.24 0.08 0  -0.2 0.08 0  -0.16 0.08 0  -0.12 0.08 0  -0.07999999999999996 0.08 0  -0.04000000000000004 0.08 0  0 0.08 0  0.04000000000000004 0.08 0  0.08000000000000007 0.08 0  0.1200000000000001 0.08 0  0.1599999999999999 0.08 0  0.2 0.08 0  0.24 0.08 0  0.28 0.08 0  0.3200000000000001 0.08 0  0.3600000000000001 0.08 0  0.3999999999999999 0.08 0  0.4399999999999999 0.08 0  0.48 0.08 0  0.52 0.08 0  0.5600000000000001 0.08 0  0.6000000000000001 0.08 0  0.6399999999999999 0.08 0  0.6799999999999999 0.08 0  0.72 0.08 0  0.76 0.08 0  0.8 0.08 0  0.8400000000000001 0.08 0  0.8799999999999999 0.08 0  0.9199999999999999 0.08 0  0.96 0.08 0  1 0.08 0  -1 0.09600000000000002 0  -0.96 0.09600000000000002 0  -0.92 0.09600000000000002 0  -0.88 0.09600000000000002 0  -0.84 0.09600000000000002 0  -0.8 0.09600000000000002 0  -0.76 0.09600000000000002 0  -0.72 0.09600000000000002 0  -0.6799999999999999 0.09600000000000002 0  -0.64 0.09600000000000002 0  -0.6 0.09600000000000002 0  -0.5600000000000001 0.09600000000000002 0  -0.52 0.09600000000000002 0  -0.48 0.09600000000000002 0  -0.4399999999999999 0.09600000000000002 0  -0.4 0.09600000000000002 0  -0.36 0.09600000000000002 0  -0.32 0.09600000000000002 0  -0.28 0.09600000000000002 0  -0.24 0.09600000000000002 0  -0.2 0.09600000000000002 0  -0.16 0.09600000000000002 0  -0.12 0.09600000000000002 0  -0.07999999999999996 0.09600000000000002 0  -0.04000000000000004 0.09600000000000002 0  0 0.09600000000000002 0  0.04000000000000004 0.09600000000000002 0  0.08000000000000007 0.09600000000000002 0  0.1200000000000001 0.09600000000000002 0  0.1599999999999999 0.09600000000000002 0  0.2 0.09600000000000002 0  0.24 0.09600000000000002 0  0.28 0.09600000000000002 0  0.3200000000000001 0.09600000000000002 0  0.3600000000000001 0.09600000000000002 0  0.3999999999999999 0.09600000000000002 0  0.4399999999999999 0.09600000000000002 0  0.48 0.09600000000000002 0  0.52 0.09600000000000002 0  0.5600000000000001 0.09600000000000002 0  0.6000000000000001 0.09600000000000002 0  0.6399999999999999 0.09600000000000002 0  0.6799999999999999 0.09600000000000002 0  0.72 0.09600000000000002 0  0.76 0.09600000000000002 0  0.8 0.09600000000000002 0  0.8400000000000001 0.09600000000000002 0  0.8799999999999999 0.09600000000000002 0  0.9199999999999999 0.09600000000000002 0  0.96 0.09600000000000002 0  1 0.09600000000000002 0  -1 0.112 0  -0.96 0.112 0  -0.92 0.112 0  -0.88 0.112 0  -0.84 0.112 0  -0.8 0.112 0  -0.76 0.112 0  -0.72 0.112 0  -0.6799999999999999 0.112 0  -0.64 0.112 0  -0.6 0.112 0  -0.5600000000000001 0.112 0  -0.52 0.112 0  -0.48 0.112 0  -0.4399999999999999 0.112 0  -0.4 0.112 0  -0.36 0.112 0  -0.32 0.112 0  -0.28 0.112 0  -0.24 0.112 0  -0.2 0.112 0  -0.16 0.112 0  -0.12 0.112 0  -0.07999999999999996 0.112 0  -0.04000000000000004 0.112 0  0 0.112 0  0.04000000000000004 0.112 0  0.08000000000000007 0.112 0  0.1200000000000001 0.112 0  0.1599999999999999 0.112 0  0.2 0.112 0  0.24 0.112 0  0.28 0.112 0  0.3200000000000001 0.112 0  0.3600000000000001 0.112 0  0.3999999999999999 0.112 0  0.4399999999999999 0.112 0  0.48 0.112 0  0.52 0.112 0  0.5600000000000001 0.112 0  0.6000000000000001 0.112 0  0.6399999999999999 0.112 0  0.6799999999999999 0.112 0  0.72 0.112 0  0.76 0.112 0  0.8 0.112 0  0.8400000000000001 0.112 0  0.8799999999999999 0.112 0  0.9199999999999999 0.112 0  0.96 0.112 0  1 0.112 0  -1 0.128 0  -0.96 0.128 0  -0.92 0.128 0  -0.88 0.128 0  -0.84 0.128 0  -0.8 0.128 0  -0.76 0.128 0  -0.72 0.128 0  -0.6799999999999999 0.128 0  -0.64 0.128 0  -0.6 0.128 0  -0.5600000000000001 0.128 0  -0.52 0.128 0  -0.48 0.128 0  -0.4399999999999999 0.128 0  -0.4 0.128 0  -0.36 0.128 0  -0.32 0.128 0  -0.28 0.128 0  -0.24 0.128 0  -0.2 0.128 0  -0.16 0.128 0  -0.12 0.128 0  -0.07999999999999996 0.128 0  -0.04000000000000004 0.128 0  0 0.128 0  0.04000000000000004 0.128 0  0.08000000000000007 0.128 0  0.1200000000000001 0.128 0  0.1599
[...]
<PointData  Scalars="f_100"> 
<DataArray  type="Float64"  Name="f_100"  format="ascii">6.0000000000000002e-05  5.3806110118763825e-05  5.1671597999227068e-05  4.9861324383554356e-05  4.7737022452744823e-05  4.5177137022843949e-05  4.2288358362887202e-05  3.9282371692416965e-05  3.6392425647967224e-05  3.3811922323401876e-05  3.1659895211924023e-05  2.9974710378612628e-05  2.8728825684043236e-05  2.7852914585226932e-05  2.7258542786968301e-05  2.6852502978653701e-05  2.6539126779410796e-05  2.6198055290895122e-05  2.5566549383121659e-05  2.0939724655769582e-05  1.5150848714585214e-05  1.2167261211534980e-05  9.8153129191168489e-06  7.7926392857446815e-06  6.0245499654017828e-06  4.5058882657014174e-06  3.2474123281793447e-06  2.2507895948411976e-06  1.5006016934288468e-06  9.6976761213042725e-07  6.4288632730719002e-07  6.1794098174335691e-07  7.0204554638506875e-07  5.1277715607952721e-07  3.1916886753331353e-07  1.8291000907508684e-07  9.9521561448474768e-08  5.2091528778367092e-08  2.6397429621853436e-08  1.2997632173237602e-08  6.2330685808851306e-09  2.9163864677086575e-09  1.3333039431245407e-09  5.9636135541137774e-10  2.6126862897800131e-10  1.1223345632313859e-10  4.7318971977173743e-11  1.9594194233032319e-11  7.9468065200589333e-12  2.9740829995403593e-12  0.0000000000000000e+00  6.0000000000000002e-05  5.4081062356366333e-05  5.1937904415300946e-05  5.0120455420835146e-05  4.7988058396185445e-05  4.5417507118004791e-05  4.2515421894744565e-05  3.9494314853984828e-05  3.6588703117587044e-05  3.3993290628614847e-05  3.1828130182504731e-05  3.0132163955678097e-05  2.8877981427074871e-05  2.7996050187004838e-05  2.7397537587898837e-05  2.6988771404995508e-05  2.6673634602537637e-05  2.6331505351954435e-05  2.5686789332401227e-05  2.1485771440461020e-05  1.5918821500641342e-05  1.2799717452354939e-05  1.0333458012500431e-05  8.2133232001543015e-06  6.3586964592738269e-06  4.7632804428565025e-06  3.4386124726219665e-06  2.3873036379783806e-06  1.5941131665302545e-06  1.0310608162432208e-06  6.8072274560706748e-07  6.2722285354927270e-07  7.0660065366297234e-07  5.1663380122912279e-07  3.2164823059899985e-07  1.8436112351325640e-07  1.0032504170401195e-07  5.2518670295499715e-08  2.6616960850003445e-08  1.3107133053822845e-08  6.2862091479099508e-09  2.9415249659175175e-09  1.3449139175754035e-09  6.0160328478686753e-10  2.6358522554183354e-10  1.1323667667528040e-10  4.7745140581125867e-11  1.9771962866967733e-11  8.0197679759578359e-12  3.0041431409503799e-12  0.0000000000000000e+00  6.0000000000000002e-05  5.4351937431145284e-05  5.2203368029574177e-05  5.0380202135753606e-05  4.8240150952015779e-05  4.5659045879659715e-05  4.2743653491231039e-05  3.9707382143889494e-05  3.6786041977571352e-05  3.4175650267047488e-05  3.1997286665172569e-05  3.0290475033988212e-05  2.9027940096543460e-05  2.8139945185106475e-05  2.7537259281095347e-05  2.7125745246990122e-05  2.6808847670198856e-05  2.6465785531603277e-05  2.5811289133208960e-05  2.1985337249687480e-05  1.6679819608432370e-05  1.3429971195559209e-05  1.0855132951176363e-05  8.6399206340777646e-06  6.6994655381889088e-06  5.0270666075852322e-06  3.6354453654136728e-06  2.5284374506075762e-06  1.6911832047951484e-06  1.0949301056812158e-06  7.2017210530386622e-07  6.3965546580185995e-07  7.1222492554251574e-07  5.2083098493739041e-07  3.2423368495197039e-07  1.8584874949107135e-07  1.0114303406364534e-07  5.2952335114233882e-08  2.6839639716686867e-08  1.3218192085184636e-08  6.3401200152258881e-09  2.9670388303996793e-09  1.3567032000832589e-09  6.0692902184806766e-10  2.6594014151680007e-10  1.1425704572539535e-10  4.8178826833622620e-11  1.9952963204071923e-11  8.0940908534465377e-12  3.0346732280910866e-12  0.0000000000000000e+00  6.0000000000000002e-05  5.4617937119976971e-05  5.2467950829067869e-05  5.0640561760246850e-05  4.8493307306242266e-05  4.5901763134653668e-05  4.2973062583717190e-05  3.9921581198886306e-05  3.6984447602817858e-05  3.4359004533978920e-05  3.2167366446573456e-05  3.0449644585150405e-05  2.9178702457836603e-05  2.8284600555925640e-05  2.7677709266558818e-05  2.7263426356479256e-05  2.6944767927621965e-05  2.6600888746940922e-05  2.5939780671571807e-05  2.2444682486251328e-05  1.7414818512979325e-05  1.4054632379809382e-05  1.1378875465666317e-05  9.0716689732549382e-06  7.0464595693959104e-06  5.2970486006434100e-06  3.8378182730940626e-06  2.6741501262542309e-06  1.7917949809613324e-06  1.1613745496106298e-06  7.6130910085162619e-07  6.5487237571567066e-07  7.1893611982012150e-07  5.2537405770979868e-07  3.2692629404200985e-07  1.8737273730105739e-07  1.0197522937908591e-07  5.3392284819115109e-08  2.7065315990465552e-08  1.3330722832284043e-08  6.3947541717188658e-09  2.9929035439259339e-09  1.3686594437002211e-09  6.1233253739529969e-10  2.6833051407162828e-10  1.1529323880894608e-10  4.8619432338706690e-11  2.0136930709905866e-11  8.1696593225716972e-12  3.0656160640877289e-12  0.0000000000000000e+00  6.0000000000000002e-05  5.4878501824963310e-05  5.2731630622804092e-05  5.0901534973632592e-05  4.8747535132154564e-05  4.6145668334824318e-05  4.3203658139893969e-05  4.0136919415602046e-05  3.7183925449102679e-05  3.4543357097852954e-05  3.2338371881598616e-05  3.0609674228033333e-05  2.9330269903967481e-05  2.8430017820210145e-05  2.7818889377204550e-05  2.7401816904188687e-05  2.7081397536568673e-05  2.6736810574013902e-05  2.6071993157330730e-05  2.2869378865824215e-05  1.8114648140711430e-05  1.4671244524306875e-05  1.1903402482917377e-05  9.5078818763828004e-06  7.3993302593540964e-06  5.5730719971830760e-06  4.0456828963773996e-06  2.8244456583933179e-06  1.8959738197156807e-06  1.2304274800717018e-06  8.0421297540526399e-07  6.7260678148619824e-07  7.2674912573188736e-07  5.3026712221231303e-07  3.2972678945646656e-07  1.8893293532461706e-07  1.0282137355880642e-07  5.3838327673476860e-08  2.7293869559952935e-08  1.3444656313520731e-08  6.4500741171394117e-09  3.0190995502886454e-09  1.3807727991015957e-09  6.1780902143127510e-10  2.7075405914721795e-10  1.1634419904055218e-10  4.9066479670824796e-11  2.0323654337302104e-11  8.2463810041424805e-12  3.0969276170777460e-12  0.0000000000000000e+00  6.0000000000000002e-05  5.5133267110571890e-05  5.2994399004528922e-05  5.1163125798603005e-05  4.9002842669446919e-05  4.6390770680564425e-05  4.3435448769768322e-05  4.0353404006898409e-05  3.7384481049180118e-05  3.4728711942676067e-05  3.2510305799460324e-05  3.0770566119173375e-05  2.9482644348092325e-05  2.8576198949398790e-05  2.7960801804328773e-05  2.7540919324019516e-05  2.7218738824725418e-05  2.6873548465958531e-05  2.6207660434266613e-05  2.3264312117291830e-05  1.8775867246987422e-05  1.5277827798381101e-05  1.2427560840240915e-05  9.9479329294867640e-06  7.7577683612744306e-06  5.8550157558735420e-06  4.2590230586769401e-06  2.9793589567930282e-06  2.0037730252459204e-06  1.3021444625267070e-06  8.4896390657700422e-07  6.9266548020554005e-07  7.3567578678757912e-07  5.3551305396383606e-07  3.3263557162840503e-07  1.9052917515517530e-07  1.0368125367997771e-07  5.4290309108943949e-08  2.7525204655847806e-08  1.3559937719043425e-08  6.5060500847349012e-09  3.0456113279174125e-09  1.3930354475680094e-09  6.2335465469129628e-10  2.7320896273128085e-10  1.1740908688347254e-10  4.9519589536245490e-11  2.0512966404683970e-11  8.3241825292482268e-12  3.1285744844907828e-12  0.0000000000000000e+00  6.0000000000000002e-05  5.5382027635856696e-05  5.3256259929085694e-05  5.1425341518417499e-05  4.9259238789202892e-05  4.6637079222403602e-05  4.3668442812604316e-05  4.0571042047787732e-05  3.7586120009038997e-05  3.4915073320154242e-05  3.2683171426110617e-05  3.0932322862501065e-05  2.9635828135145884e-05  2.8723146288738609e-05  2.8103449036518098e-05  2.7680736267502863e-05  2.7356794245944045e-05  2.7011101127954121e-05  2.6346526118471758e-05  2.3633726728557329e-05  1.9398292360200275e-05  1.5872751062606598e-05  1.2950317724876200e-05  1.0391252575515742e-05  8.1215013514864921e-06  6.1427886273706042e-06  4.4778493256908772e-06  3.1389491194637837e-06  2.1152667891220803e-06  1.3765972028309252e-06  8.9564244867299052e-07  7.1491032080005564e-07  7.4572491087875746e-07  5.4111351535161693e-07  3.3565271028919410e-07  1.9216125935295268e-07  1.0455468662210115e-07  5.4748103958897629e-08  2.7759245138770704e-08  1.3676523737110773e-08  6.5626585944542298e-09  3.0724266363811500e-09  1.4054412213995384e-09  6.2896642307233008e-10  2.7569379260472732e-10  1.1848723923959244e-10  4.9978462256823420e-11  2.0704734394488033e-11  8.4030059429115822e-12  3.1605318334976413e-12  0.0000000000000000e+00  6.0000000000000002e-05  5.5624707273573538e-05  5.3517228721143888e-05  5.1688192606641238e-05  4.9516733046251824e-05  4.6884602944205747e-05  4.3902648408138726e-05  4.0789840512806055e-05  3.7788848004375851e-05  3.5102445709925988e-05  3.2856972320162161e-05  3.1094947434984108e-05  2.9789823969196410e-05  2.8870862494178477e-05  2.8246833809580636e-05  2.7821270566576719e-05  2.7495566349034412e-05  2.7149468024072403e-05  2.6488347030554986e-05  2.3981289652545990e-05  1.9983524753345494e-05  1.6454720175309780e-05  1.3470765284021676e-05  1.0837331551942320e-05  8.4902954033574642e-06  6.4363293595530981e-06  4.7021975569530303e-06  3.3032968018522315e-06  2.2305470601970208e-06  1.4538707482011084e-06  9.4433037029623247e-07  7.3924492917045594e-07  7.5690238297810385e-07  5.4706896423548150e-07  3.3877794499022871e-07  1.9382895145604848e-07  1.0544150978851366e-07  5.5211610122093870e-08  2.7995930657750193e-08  1.3794380376177326e-08  6.6198812753167437e-09  3.0995359035265015e-09  1.4179852953954687e-09  6.3464196690580899e-10  2.7820742670484656e-10  1.1957813626236605e-10  5.0442862757963755e-11  2.0898854307383435e-11  8.4828057912559031e-12  3.1927817296241681e-12  0.0000000000000000e+00  6.0000000000000002e-05  5.5861334403739358e-05  5.3777331380213794e-05  5.1951692663200334e-05  4.9775335720214104e-05  4.7133350830962057e-05  4.4138073554809192e-05  4.1009806306398947e-05  3.7992670777318040e-05  3.5290833786524059e-05  3.3031712319962973e-05  3.1258443125381621e-05  2.9944634853724969e-05  2.9019350480571710e-05  2.8390959065513229e-05  2.7962525203178342e-05  2.7635057753308496e-05  2.7288648994175729e-05  2.6632895307749940e-05  2.4310159818423238e-05  2.0534079138333700e-05  1.7022791425700996e-05  1.3988129680194718e-05  1.1285727486497756e-05  8.8639596961844326e-06  6.7356090698385263e-06  4.9321297209713799e-06  3.4725039272899849e-06  2.3497226532575485e-06  1.5340625344190756e-06  9.9511206161003613e-07  7.6560517221393029e-07  7.6921132398828562e-07  5.5337865843406643e-07  3.4201068595393774e-07  1.9553196793283992e-07  1.0634157355883331e-07  5.5680743399656391e-08  2.8235213520056438e-08  1.3913481191144327e-08  6.6777039069410828e-09  3.1269317270140034e-09  1.4306639360941676e-09  6.4037945853007864e-10  2.8074899497552611e-10  1.2068137443422673e-10  5.0912608397351344e-11  2.1095245277037497e-11  8.5635467621064550e-12  3.2253117817515398e-12  0.0000000000000000e+00  6.0000000000000002e-05  5.6092021533317316e-05  5.4036604080961525e-05  5.2215858352278998e-05  5.0035057846382325e-05  4.7383331923649289e-05  4.4374726157247166e-05  4.1230946287589828e-05  3.8197594133410364e-05  3.5480242391928075e-05  3.3207395499883774e-05  3.1422813483797961e-05  3.0100264042529564e-05  2.9168613379161593e-05  2.8535827918876255e-05  2.8104503284418803e-05  2.7775271129468649e-05  2.7428643961880411e-05  2.6779959510180218e-05  2.4623056271965550e-05  2.1052874744216265e-05  1.7576376773750782e-05  1.4501780838975456e-05  1.1736072904357313e-05  9.2423519928957061e-06  7.0406348817291825e-06  5.1677360435396922e-06  3.6466947620664637e-06  2.4729196446810007e-06  1.6172824859789031e-06  1.0480761196702121e-06  7.9395229280561874e-07  7.8265225860183138e-07  5.6004065731549259e-07  3.4535001546218031e-07  1.9726997181120755e-07  1.0725473517863079e-07  5.6155433295310941e-08  2.8477056142335822e-08  1.4033805839137436e-08  6.7361156395140543e-09  3.1546084689035478e-09  1.4434742979555604e-09  6.4617750284582491e-10  2.8331783216344453e-10  1.2179664472504439e-10  5.1387559096450723e-11  2.1293845206134903e-11  8.6452017736755826e-12  3.2581140449542262e-12  0.0000000000000000e+00  6.0000000000000002e-05  5.6316948531336925e-05  5.4295092794892411e-05  5.2480709338851443e-05  5.0295911237437434e-05  4.7634555363201544e-05  4.4612614064888869e-05  4.1453267289967555e-05  3.8403623938864745e-05  3.5670676512760893e-05  3.3384026134213226e-05  3.1588062280130133e-05  3.0256714999362620e-05  2.9318654502685542e-05  2.8681443629240208e-05  2.8247208022329911e-05  2.7916209184742023e-05  2.7569452717234448e-05  2.6929344973242940e-05  2.4922321324504086e-05  2.1542944188575095e-05  1.8115233211948862e-05  1.5011241304281433e-05  1.2188083697304169e-05  9.6253848965234702e-06  7.3514543204940076e-06  5.4091379684540038e-06  3.8260178115861889e-06  2.6002825298186649e-06  1.7036537344730590e-06  1.1033169413688418e-06  8.2426796571236576e-07  7.9722326818618937e-07  5.6705182160094084e-07  3.4879468994821480e-07  1.9904256776230399e-07  1.0818085384454970e-07  5.6635619606871809e-08  2.8721428976872451e-08  1.4155338903963617e-08  6.7951083590378445e-09  3.1825619259183186e-09  1.4564142576909384e-09  6.5203505653474527e-10  2.8591343949701000e-10  1.2292371487134204e-10  5.1867609338477027e-11  2.1494607229699395e-11  8.7277504260059143e-12  3.2911841334147146e-12  0.0000000000000000e+00  6.0000000000000002e-05  5.6536348884156200e-05  5.4552852980185875e-05  5.2746268221558807e-05  5.0557908496869935e-05  4.7887030425295459e-05  4.4851745103229748e-05  4.1676776137839747e-05  3.8610766118063660e-05  3.5862141261340681e-05  3.3561608667334287e-05  3.1754193469838052e-05  3.0413991364745515e-05  2.9469477316730745e-05  2.8827809578608308e-05  2.8390642717356611e-05  2.8057874651405802e-05  2.7711074760148355e-05  2.7080873605481424e-05  2.5209977164530368e-05  2.2007272785547085e-05  1.8639438554233946e-05  1.5516193445556948e-05  1.2641567527023447e-05  1.0013032451374457e-05  7.6681601814270181e-06  5.6564916374852787e-06  4.0106482346997030e-06  2.7319758524222776e-06  1.7933137170789430e-06  1.1609362627943564e-06  8.5655074381258404e-07  8.1292011361698683e-07  5.7440781236533232e-07  3.5234314292457538e-07  2.0084929845178373e-07  1.0911978678574907e-07  5.7121249668173830e-08  2.8968308826277640e-08  1.4278068939635091e-08  6.8546761708461634e-09  3.2107890612513822e-09  1.4694822795882944e-09  6.5795136243138238e-10  2.8853545357262751e-10  1.2406241499697209e-10  5.2352681678977676e-11  2.1697496848501693e-11  8.8111777460567924e-12  3.3245205044502761e-12  0.0000000000000000e+00  6.0000000000000002e-05  5.6750498472320113e-05  5.4809949302197848e-05  5.3012560460306745e-05  5.0821063024867362e-05  4.8140766547361769e-05  4.5092127098978641e-05  4.1901479659243494e-05  3.8819026651301976e-05  3.6054641859932836e-05  3.3740147689084587e-05  3.1921211165742249e-05  3.0572096928679565e-05  2.9621085416218166e-05  2.8974929252916153e-05  2.8534810744917156e-05  2.8200270278036765e-05  2.7853509192759496e-05  2.7234383287768776e-05  2.5487775561285395e-05  2.2448715531933969e-05  1.9149358771465216e-05  1.6016484667363670e-05  1.3096431870776943e-05  1.0405336894665471e-05  7.9908957048617989e-06  5.9099917230879736e-06  4.2007906069619716e-06  2.8681861464951584e-06  1.8864155248618315e-06  1.2210446351760493e-06  8.9081351677282314e-07  8.2973631896130405e-07  5.8210309010347036e-07  3.5599348885164615e-07  2.0268964200069941e-07  1.1007138617754007e-07  5.7612276126125186e-08  2.9217677475792945e-08  1.4401987692500645e-08  6.9148149793867071e-09  3.2392877864096657e-09  1.4826773060167766e-09  6.6392589619547597e-10  2.9118362108758748e-10  1.2521262594272579e-10  5.2842721481981925e-11  2.1902489605095206e-11  8.8954731704412441e-12  3.3581238818588896e-12  0.0000000000000000e+00  6.0000000000000002e-05  5.6959706451568164e-05  5.5066455358978779e-05  5.3279614297446565e-05  5.1085389017336549e-05  4.8395773348999354e-05  4.5333767900147455e-05  4.2127384696378477e-05  3.9028411572747989e-05  3.6248183627655571e-05  3.3919647914393203e-05  3.2089119614780677e-05  3.0731035608199313e-05  2.9773482506091723e-05  2.9122806226870428e-05  2.8679715544475997e-05  2.8343398822965934e-05  2.7996754650810731e-05  2.7389726994090414e-05  2.5757240923572692e-05  2.2869959941221812e-05  1.9645611830538817e-05  1.6512130547513247e-05  1.3552691557139157e-05  1.0802415442819046e-05  8.3198599594282402e-06  6.1698755179018072e-06  4.3966819378045134e-06  3.0091241027033801e-06  1.9831294298848704e-06  1.2837628496350728e-06  9.2708171152813672e-07  8.4766321087244765e-07  5.9013091463201277e-07  3.5974352802901644e-07  2.0456301042256837e-07  1.1103549675178227e-07  5.8108655158371272e-08  2.9469520585343168e-08  1.4527089468978532e-08  6.9755221463409895e-09  3.2680567837287124e-09  1.4959986683787395e-09  6.6995832296591295e-10  2.9385777831419045e-10  1.2637426979136077e-10  5.3337692648820632e-11  2.2109569199121966e-11  8.9806297204403382e-12  3.3919967926376336e-12  0.0000000000000000e+00  6.0000000000000002e-05  5.7164307888507682e-05  5.5322453394949484e-05  5.3547460671763656e-05  5.1350901458652016e-05  4.8652060646772951e-05  4.5576675391930641e-05  4.2354498113924756e-05  3.9238926968603005e-05  3.6442771969584544e-05  3.4100114166442998e-05  3.2257923178843225e-05  3.0890811428900035e-05  2.9926672385453784e-05  2.9271444151520861e-05  2.8825360610673557e-05  2.8487263049532396e-05  2.8140809265793817e-05  2.7546771725560151e-05  2.6019707289696351e-05  2.3273515562412843e-05  2.0129031841558138e-05  1.7003316044492138e-05  1.4010475726527216e-05  1.1204467042531116e-05  8.6553133731336500e-06  6.4364272245755263e-06  4.5985948878330036e-06  3.1550269110374022e-06  2.0836445527762232e-06  1.3492233306887812e-06  9.6539203961763814e-07  8.6668991113291030e-07  5.9848334652121686e-07  3.6359075257263971e-07  2.0646874892320499e-07  1.1201195399210174e-07  5.8610345054050457e-08  2.9723826794030548e-08  1.4653370621952488e-08  7.0367962124658277e-09  3.2970953619294502e-09  1.5094460146588278e-09  6.7604846211047887e-10  2.9655783441678466e-10  1.2754730217098828e-10  5.3837574150578208e-11  2.2318725958043355e-11  9.0666433325126071e-12  3.4261431958907776e-12  0.0000000000000000e+00  6.0000000000000002e-05  5.7364657858404967e-05  5.5578033992319005e-05  5.3816133124769578e-05  5.1617616108657904e-05  4.8909638464215811e-05  4.5820857509081007e-05  4.2582826805623654e-05  3.9450578975438254e-05  3.6638412367677627e-05  3.4281551362736588e-05  3.2427626318956028e-05  3.1051428509724176e-05  3.0080658934522408e-05  2.9420846744067650e-05  2.8971749486139364e-05  2.8631865722818202e-05  2.8285670651062602e-05  2.7705397326430417e-05  2.6276349950479084e-05  2.3661718691039345e-05  2.0600636043024604e-05  1.7490395074133690e-05  1.4470034209046086e-05  1.1611779045359289e-05  8.9975833739740148e-06  6.7099824116612964e-06  4.8068411553705614e-06  3.3061607532044624e-06  2.1881706504703075e-06  1.4175715195813292e-06  1.0057916501858295e-06  8.8680328141702637e-07  6.0715125069558702e-07  3.6753235352443295e-07  2.0840613596645356e-07  1.1300058282121124e-07  5.9117305093981185e-08  2.9980586998357583e-08  1.4780829133829128e-08  7.0986366712338582e-09  3.3264033384999849e-09  1.5230192504346304e-09  6.8219625853695890e-10  2.9928375788125660e-10  1.2873170599790756e-10  5.4342357210652956e-11  2.2529955595240402e-11  9.1535123144629076e-12  3.4605681866245588e-12  0.0000000000000000e+00  6.0000000000000002e-05  5.7561126760216364e-05  5.5833295734462017e-05  5.4085667699004988e-05  5.1885549484398651e-05  4.9168517037727019e-05  4.6066322245366766e-05  4.2812377699431914e-05  3.9663373778687881e-05  3.6835110373203939e-05  3.4463964503550525e-05  3.2598233582213971e-05  3.1212891050416630e-05  3.023544610389619