<?xml version="1.0"?>
<VTKFile type="UnstructuredGrid"  version="0.1"  >
<UnstructuredGrid>
<Piece  NumberOfPoints="2601" NumberOfCells="5000">
<Points>
<DataArray  type="Float64"  NumberOfComponents="3"  format="ascii">-1 0 0  -0.96 0 0  -0.92 0 0  -0.88 0 0  -0.84 0 0  -0.8 0 0  -0.76 0 0  -0.72 0 0  -0.6799999999999999 0 0  -0.64 0 0  -0.6 0 0  -0.5600000000000001 0 0  -0.52 0 0  -0.48 0 0  -0.4399999999999999 0 0  -0.4 0 0  -0.36 0 0  -0.32 0 0  -0.28 0 0  -0.24 0 0  -0.2 0 0  -0.16 0 0  -0.12 0 0  -0.07999999999999996 0 0  -0.04000000000000004 0 0  0 0 0  0.04000000000000004 0 0  0.08000000000000007 0 0  0.1200000000000001 0 0  0.1599999999999999 0 0  0.2 0 0  0.24 0 0  0.28 0 0  0.3200000000000001 0 0  0.3600000000000001 0 0  0.3999999999999999 0 0  0.4399999999999999 0 0  0.48 0 0  0.52 0 0  0.5600000000000001 0 0  0.6000000000000001 0 0  0.6399999999999999 0 0  0.6799999999999999 0 0  0.72 0 0  0.76 0 0  0.8 0 0  0.8400000000000001 0 0  0.8799999999999999 0 0  0.9199999999999999 0 0  0.96 0 0  1 0 0  -1 0.016 0  -0.96 0.016 0  -0.92 0.016 0  -0.88 0.016 0  -0.84 0.016 0  -0.8 0.016 0  -0.76 0.016 0  -0.72 0.016 0  -0.6799999999999999 0.016 0  -0.64 0.016 0  -0.6 0.016 0  -0.5600000000000001 0.016 0  -0.52 0.016 0  -0.48 0.016 0  -0.4399999999999999 0.016 0  -0.4 0.016 0  -0.36 0.016 0  -0.32 0.016 0  -0.28 0.016 0  -0.24 0.016 0  -0.2 0.016 0  -0.16 0.016 0  -0.12 0.016 0  -0.07999999999999996 0.016 0  -0.04000000000000004 0.016 0  0 0.016 0  0.04000000000000004 0.016 0  0.08000000000000007 0.016 0  0.1200000000000001 0.016 0  0.1599999999999999 0.016 0  0.2 0.016 0  0.24 0.016 0  0.28 0.016 0  0.3200000000000001 0.016 0  0.3600000000000001 0.016 0  0.3999999999999999 0.016 0  0.4399999999999999 0.016 0  0.48 0.016 0  0.52 0.016 0  0.5600000000000001 0.016 0  0.6000000000000001 0.016 0  0.6399999999999999 0.016 0  0.6799999999999999 0.016 0  0.72 0.016 0  0.76 0.016 0  0.8 0.016 0  0.8400000000000001 0.016 0  0.8799999999999999 0.016 0  0.9199999999999999 0.016 0  0.96 0.016 0  1 0.016 0  -1 0.032 0  -0.96 0.032 0  -0.92 0.032 0  -0.88 0.032 0  -0.84 0.032 0  -0.8 0.032 0  -0.76 0.032 0  -0.72 0.032 0  -0.6799999999999999 0.032 0  -0.64 0.032 0  -0.6 0.032 0  -0.5600000000000001 0.032 0  -0.52 0.032 0  -0.48 0.032 0  -0.4399999999999999 0.032 0  -0.4 0.032 0  -0.36 0.032 0  -0.32 0.032 0  -0.28 0.032 0  -0.24 0.032 0  -0.2 0.032 0  -0.16 0.032 0  -0.12 0.032 0  -0.07999999999999996 0.032 0  -0.04000000000000004 0.032 0  0 0.032 0  0.04000000000000004 0.032 0  0.08000000000000007 0.032 0  0.1200000000000001 0.032 0  0.1599999999999999 0.032 0  0.2 0.032 0  0.24 0.032 0  0.28 0.032 0  0.3200000000000001 0.032 0  0.3600000000000001 0.032 0  0.3999999999999999 0.032 0  0.4399999999999999 0.032 0  0.48 0.032 0  0.52 0.032 0  0.5600000000000001 0.032 0  0.6000000000000001 0.032 0  0.6399999999999999 0.032 0  0.6799999999999999 0.032 0  0.72 0.032 0  0.76 0.032 0  0.8 0.032 0  0.8400000000000001 0.032 0  0.8799999999999999 0.032 0  0.9199999999999999 0.032 0  0.96 0.032 0  1 0.032 0  -1 0.04800000000000001 0  -0.96 0.04800000000000001 0  -0.92 0.04800000000000001 0  -0.88 0.04800000000000001 0  -0.84 0.04800000000000001 0  -0.8 0.04800000000000001 0  -0.76 0.04800000000000001 0  -0.72 0.04800000000000001 0  -0.6799999999999999 0.04800000000000001 0  -0.64 0.04800000000000001 0  -0.6 0.04800000000000001 0  -0.5600000000000001 0.04800000000000001 0  -0.52 0.04800000000000001 0  -0.48 0.04800000000000001 0  -0.4399999999999999 0.04800000000000001 0  -0.4 0.04800000000000001 0  -0.36 0.04800000000000001 0  -0.32 0.04800000000000001 0  -0.28 0.04800000000000001 0  -0.24 0.04800000000000001 0  -0.2 0.04800000000000001 0  -0.16 0.04800000000000001 0  -0.12 0.04800000000000001 0  -0.07999999999999996 0.04800000000000001 0  -0.04000000000000004 0.04800000000000001 0  0 0.04800000000000001 0  0.04000000000000004 0.04800000000000001 0  0.08000000000000007 0.04800000000000001 0  0.1200000000000001 0.04800000000000001 0  0.1599999999999999 0.04800000000000001 0  0.2 0.04800000000000001 0  0.24 0.04800000000000001 0  0.28 0.04800000000000001 0  0.3200000000000001 0.04800000000000001 0  0.3600000000000001 0.04800000000000001 0  0.3999999999999999 0.04800000000000001 0  0.4399999999999999 0.04800000000000001 0  0.48 0.04800000000000001 0  0.52 0.04800000000000001 0  0.5600000000000001 0.04800000000000001 0  0.6000000000000001 0.04800000000000001 0  0.6399999999999999 0.04800000000000001 0  0.6799999999999999 0.04800000000000001 0  0.72 0.04800000000000001 0  0.76 0.04800000000000001 0  0.8 0.04800000000000001 0  0.8400000000000001 0.04800000000000001 0  0.8799999999999999 0.04800000000000001 0  0.9199999999999999 0.04800000000000001 0  0.96 0.04800000000000001 0  1 0.04800000000000001 0  -1 0.064 0  -0.96 0.064 0  -0.92 0.064 0  -0.88 0.064 0  -0.84 0.064 0  -0.8 0.064 0  -0.76 0.064 0  -0.72 0.064 0  -0.6799999999999999 0.064 0  -0.64 0.064 0  -0.6 0.064 0  -0.5600000000000001 0.064 0  -0.52 0.064 0  -0.48 0.064 0  -0.4399999999999999 0.064 0  -0.4 0.064 0  -0.36 0.064 0  -0.32 0.064 0  -0.28 0.064 0  -0.24 0.064 0  -0.2 0.064 0  -0.16 0.064 0  -0.12 0.064 0  -0.07999999999999996 0.064 0  -0.04000000000000004 0.064 0  0 0.064 0  0.04000000000000004 0.064 0  0.08000000000000007 0.064 0  0.1200000000000001 0.064 0  0.1599999999999999 0.064 0  0.2 0.064 0  0.24 0.064 0  0.28 0.064 0  0.3200000000000001 0.064 0  0.3600000000000001 0.064 0  0.3999999999999999 0.064 0  0.4399999999999999 0.064 0  0.48 0.064 0  0.52 0.064 0  0.5600000000000001 0.064 0  0.6000000000000001 0.064 0  0.6399999999999999 0.064 0  0.6799999999999999 0.064 0  0.72 0.064 0  0.76 0.064 0  0.8 0.064 0  0.8400000000000001 0.064 0  0.8799999999999999 0.064 0  0.9199999999999999 0.064 0  0.96 0.064 0  1 0.064 0  -1 0.08 0  -0.96 0.08 0  -0.92 0.08 0  -0.88 0.08 0  -0.84 0.08 0  -0.8 0.08 0  -0.76 0.08 0  -0.72 0.08 0  -0.6799999999999999 0.08 0  -0.64 0.08 0  -0.6 0.08 0  -0.5600000000000001 0.08 0  -0.52 0.08 0  -0.48 0.08 0  -0.4399999999999999 0.08 0  -0.4 0.08 0  -0.36 0.08 0  -0.32 0.08 0  -0.28 0.08 0  -0.24 0.08 0  -0.2 0.08 0  -0.16 0.08 0  -0.12 0.08 0  -0.07999999999999996 0.08 0  -0.04000000000000004 0.08 0  0 0.08 0  0.04000000000000004 0.08 0  0.08000000000000007 0.08 0  0.1200000000000001 0.08 0  0.1599999999999999 0.08 0  0.2 0.08 0  0.24 0.08 0  0.28 0.08 0  0.3200000000000001 0.08 0  0.3600000000000001 0.08 0  0.3999999999999999 0.08 0  0.4399999999999999 0.08 0  0.48 0.08 0  0.52 0.08 0  0.5600000000000001 0.08 0  0.6000000000000001 0.08 0  0.6399999999999999 0.08 0  0.6799999999999999 0.08 0  0.72 0.08 0  0.76 0.08 0  0.8 0.08 0  0.8400000000000001 0.08 0  0.8799999999999999 0.08 0  0.9199999999999999 0.08 0  0.96 0.08 0  1 0.08 0  -1 0.09600000000000002 0  -0.96 0.09600000000000002 0  -0.92 0.09600000000000002 0  -0.88 0.09600000000000002 0  -0.84 0.09600000000000002 0  -0.8 0.09600000000000002 0  -0.76 0.09600000000000002 0  -0.72 0.09600000000000002 0  -0.6799999999999999 0.09600000000000002 0  -0.64 0.09600000000000002 0  -0.6 0.09600000000000002 0  -0.5600000000000001 0.09600000000000002 0  -0.52 0.09600000000000002 0  -0.48 0.09600000000000002 0  -0.4399999999999999 0.09600000000000002 0  -0.4 0.09600000000000002 0  -0.36 0.09600000000000002 0  -0.32 0.09600000000000002 0  -0.28 0.09600000000000002 0  -0.24 0.09600000000000002 0  -0.2 0.09600000000000002 0  -0.16 0.09600000000000002 0  -0.12 0.09600000000000002 0  -0.07999999999999996 0.09600000000000002 0  -0.04000000000000004 0.09600000000000002 0  0 0.09600000000000002 0  0.04000000000000004 0.09600000000000002 0  0.08000000000000007 0.09600000000000002 0  0.1200000000000001 0.09600000000000002 0  0.1599999999999999 0.09600000000000002 0  0.2 0.09600000000000002 0  0.24 0.09600000000000002 0  0.28 0.09600000000000002 0  0.3200000000000001 0.09600000000000002 0  0.3600000000000001 0.09600000000000002 0  0.3999999999999999 0.09600000000000002 0  0.4399999999999999 0.09600000000000002 0  0.48 0.09600000000000002 0  0.52 0.09600000000000002 0  0.5600000000000001 0.09600000000000002 0  0.6000000000000001 0.09600000000000002 0  0.6399999999999999 0.09600000000000002 0  0.6799999999999999 0.09600000000000002 0  0.72 0.09600000000000002 0  0.76 0.09600000000000002 0  0.8 0.09600000000000002 0  0.8400000000000001 0.09600000000000002 0  0.8799999999999999 0.09600000000000002 0  0.9199999999999999 0.09600000000000002 0  0.96 0.09600000000000002 0  1 0.09600000000000002 0  -1 0.112 0  -0.96 0.112 0  -0.92 0.112 0  -0.88 0.112 0  -0.84 0.112 0  -0.8 0.112 0  -0.76 0.112 0  -0.72 0.112 0  -0.6799999999999999 0.112 0  -0.64 0.112 0  -0.6 0.112 0  -0.5600000000000001 0.112 0  -0.52 0.112 0  -0.48 0.112 0  -0.4399999999999999 0.112 0  -0.4 0.112 0  -0.36 0.112 0  -0.32 0.112 0  -0.28 0.112 0  -0.24 0.112 0  -0.2 0.112 0  -0.16 0.112 0  -0.12 0.112 0  -0.07999999999999996 0.112 0  -0.04000000000000004 0.112 0  0 0.112 0  0.04000000000000004 0.112 0  0.08000000000000007 0.112 0  0.1200000000000001 0.112 0  0.1599999999999999 0.112 0  0.2 0.112 0  0.24 0.112 0  0.28 0.112 0  0.3200000000000001 0.112 0  0.3600000000000001 0.112 0  0.3999999999999999 0.112 0  0.4399999999999999 0.112 0  0.48 0.112 0  0.52 0.112 0  0.5600000000000001 0.112 0  0.6000000000000001 0.112 0  0.6399999999999999 0.112 0  0.6799999999999999 0.112 0  0.72 0.112 0  0.76 0.112 0  0.8 0.112 0  0.8400000000000001 0.112 0  0.8799999999999999 0.112 0  0.9199999999999999 0.112 0  0.96 0.112 0  1 0.112 0  -1 0.128 0  -0.96 0.128 0  -0.92 0.128 0  -0.88 0.128 0  -0.84 0.128 0  -0.8 0.128 0  -0.76 0.128 0  -0.72 0.128 0  -0.6799999999999999 0.128 0  -0.64 0.128 0  -0.6 0.128 0  -0.5600000000000001 0.128 0  -0.52 0.128 0  -0.48 0.128 0  -0.4399999999999999 0.128 0  -0.4 0.128 0  -0.36 0.128 0  -0.32 0.128 0  -0.28 0.128 0  -0.24 0.128 0  -0.2 0.128 0  -0.16 0.128 0  -0.12 0.128 0  -0.07999999999999996 0.128 0  -0.04000000000000004 0.128 0  0 0.128 0  0.04000000000000004 0.128 0  0.08000000000000007 0.128 0  0.1200000000000001 0.128 0  0.1599
[...]
<PointData  Scalars="f_100"> 
<DataArray  type="Float64"  Name="f_100"  format="ascii">6.0000000000000002e-05  5.4287091150346653e-05  5.3032892876761910e-05  5.2632746131924136e-05  5.2490869512903235e-05  5.2419994526650033e-05  5.2356065931389625e-05  5.2272254102987353e-05  5.2151868190187625e-05  5.1979877431995664e-05  5.1740517351875738e-05  5.1417060416170167e-05  5.0992510308808904e-05  5.0450781346937190e-05  4.9778101054198582e-05  4.8964099792846418e-05  4.7999435027869616e-05  4.6844094334312017e-05  4.5232180483057092e-05  3.6857047315285929e-05  2.6902188918217412e-05  2.2275897288719244e-05  1.9091550391998942e-05  1.6712047471888652e-05  1.4867068537274109e-05  1.3404260573188097e-05  1.2228295592567329e-05  1.1285709840554252e-05  1.0583560980976338e-05  1.0281231074687798e-05  1.1010973046423195e-05  1.5384394284800363e-05  2.1653013617213193e-05  2.2915109179638607e-05  2.2400421059254766e-05  2.1247712531457581e-05  1.9854813849554941e-05  1.8353249540039218e-05  1.6793983632450146e-05  1.5206703767156093e-05  1.3617217219071935e-05  1.2051431609599400e-05  1.0535088514497896e-05  9.0922492058041303e-06  7.7434816388746218e-06  6.5036978287764889e-06  5.3781273290791821e-06  4.3506879676419940e-06  3.3459204721245043e-06  2.1108213931140544e-06  0.0000000000000000e+00  6.0000000000000002e-05  5.4561175886895273e-05  5.3300264903784829e-05  5.2897112127370260e-05  5.2754245353458785e-05  5.2682991309387518e-05  5.2618828754815191e-05  5.2534755704516836e-05  5.2413993822332502e-05  5.2241443053135802e-05  5.2001266991346423e-05  5.1676658348033435e-05  5.1250534292243612e-05  5.0706720260188973e-05  5.0031359310389889e-05  4.9214011907727015e-05  4.8245307629858439e-05  4.7085534609544568e-05  4.5446887979330635e-05  3.7818185207533577e-05  2.8244777170813601e-05  2.3391135702127348e-05  2.0034769728283680e-05  1.7528431530812767e-05  1.5586278563961001e-05  1.4047096841303481e-05  1.2809907779954113e-05  1.1817211507886364e-05  1.1072702441230687e-05  1.0731961279269358e-05  1.1420953066375420e-05  1.5545394283020524e-05  2.1750046296414659e-05  2.3033140047228681e-05  2.2518639194232175e-05  2.1361178027414504e-05  1.9961801577776852e-05  1.8453015304780746e-05  1.6886114746582513e-05  1.5290942878720210e-05  1.3693428272689498e-05  1.2119603448594879e-05  1.0595342501598119e-05  9.1448402815940860e-06  7.7887904391025761e-06  6.5422152146768057e-06  5.4104358195598332e-06  4.3774500629957121e-06  3.3678929990169297e-06  2.1289666392987833e-06  0.0000000000000000e+00  6.0000000000000002e-05  5.4831215301919858e-05  5.3566816290088185e-05  5.3162121579335734e-05  5.3018725928150185e-05  5.2947238291130344e-05  5.2882887317289298e-05  5.2798566705337325e-05  5.2677432013404106e-05  5.2504320485818498e-05  5.2263325669012480e-05  5.1937560875644032e-05  5.1509856611525688e-05  5.0963949139722736e-05  5.0285896974471150e-05  4.9465192879836927e-05  4.8492460175539244e-05  4.7328474318539013e-05  4.5669147968920156e-05  3.8697142425472517e-05  2.9576226487591224e-05  2.4503732593056845e-05  2.0985812231551216e-05  1.8357678118423844e-05  1.6320934493680703e-05  1.4706708617715697e-05  1.3408885645289363e-05  1.2366142697440871e-05  1.1578779014905814e-05  1.1198049111716555e-05  1.1839782667029805e-05  1.5741473461432326e-05  2.1861528127391276e-05  2.3156448404978485e-05  2.2638962078972951e-05  2.1475708805692468e-05  2.0069504189363166e-05  1.8553361581757764e-05  1.6978758627141279e-05  1.5375647032277110e-05  1.3770062347633050e-05  1.2188157847658173e-05  1.0655939245273412e-05  9.1977351171679745e-06  7.8343653004208735e-06  6.5809628692690304e-06  5.4429413352968119e-06  4.4043784365229944e-06  3.3899936107805405e-06  2.1470784817458061e-06  0.0000000000000000e+00  6.0000000000000002e-05  5.5096413534190150e-05  5.3832506354968211e-05  5.3427767649678167e-05  5.3284313638495797e-05  5.3212740799825432e-05  5.3148247901778573e-05  5.3063693731572815e-05  5.2942189551019523e-05  5.2768516633243429e-05  5.2526700398691063e-05  5.2199775127305209e-05  5.1770484509619654e-05  5.1222475332740879e-05  5.0541721465791910e-05  4.9717650079282240e-05  4.8740899264499309e-05  4.7572903064162720e-05  4.5898484907250238e-05  3.9505103981621513e-05  3.0862996194339270e-05  2.5607663364584940e-05  2.1942063208463892e-05  1.9198439366301037e-05  1.7070397068418744e-05  1.5382901682759239e-05  1.4025331114417227e-05  1.2932813599685195e-05  1.2102270084489421e-05  1.1680193039295320e-05  1.2269466285360432e-05  1.5968304140886230e-05  2.1987688944247684e-05  2.3285113453486031e-05  2.2761422671697990e-05  2.1591317807743542e-05  2.0177928125955777e-05  1.8654292635184803e-05  1.7071918673193825e-05  1.5460819131771863e-05  1.3847121937621157e-05  1.2257096898312158e-05  1.0716880432131313e-05  9.2509350003292152e-06  7.8802071282812073e-06  6.6199413299989884e-06  5.4756440183439648e-06  4.4314726663681108e-06  3.4122209683146651e-06  2.1651513952075536e-06  0.0000000000000000e+00  6.0000000000000002e-05  5.5356212423848643e-05  5.4097310642728826e-05  5.3694047631693245e-05  5.3551012200679021e-05  5.3479504592434094e-05  5.3414916935219133e-05  5.3330143455767006e-05  5.3208273228671983e-05  5.3034038379635510e-05  5.2791398153194479e-05  5.2463308167556437e-05  5.2032425141996924e-05  5.1482306075416673e-05  5.0798840071418987e-05  4.9971390729445889e-05  4.8990631354676063e-05  4.7818814816579465e-05  4.6134419266141461e-05  4.0251999722927141e-05  3.2088908739234620e-05  2.6698603302835739e-05  2.2901282354356801e-05  2.0049553346532336e-05  1.7834149936352456e-05  1.6075574963501029e-05  1.4659421252628423e-05  1.3517594178334355e-05  1.2643692630627024e-05  1.2179079339405312e-05  1.2711693592683039e-05  1.6222801954835989e-05  2.2128696862101141e-05  2.3419194078591310e-05  2.2886045286462359e-05  2.1708015131073677e-05  2.0287078886350554e-05  1.8755812387479820e-05  1.7165598139447012e-05  1.5546462014063770e-05  1.3924609513623286e-05  1.2326422706087495e-05  1.0778167797901180e-05  9.3044413015973488e-06  7.9263169420853916e-06  6.6591512783609142e-06  5.5085441926013621e-06  4.4587325901924959e-06  3.4345741963497036e-06  2.1831829649514236e-06  0.0000000000000000e+00  6.0000000000000002e-05  5.5610248215892933e-05  5.4361218809058054e-05  5.3960962722536068e-05  5.3818826577550457e-05  5.3747535835173418e-05  5.3682900984897108e-05  5.3597922599671047e-05  5.3475689852251243e-05  5.3300892600065043e-05  5.3057425877693317e-05  5.2728167014445311e-05  5.2295685598063591e-05  5.1743448518446161e-05  5.1057259975192493e-05  5.0226421936399993e-05  4.9241662767833655e-05  4.8066206591491415e-05  4.6376480307860844e-05  4.0946519765095957e-05  3.3247879977135636e-05  2.7773094629609792e-05  2.3861488299010178e-05  2.0909991179970341e-05  1.8611765829552814e-05  1.6784697296393871e-05  1.5311392356834359e-05  1.4120904920396831e-05  1.3203601543355447e-05  1.2695403537959780e-05  1.3167923390372875e-05  1.6502784002062685e-05  2.2284659774710169e-05  2.3558729180152102e-05  2.3012846031448758e-05  2.1825808194558222e-05  2.0396961089712673e-05  1.8857924449349515e-05  1.7259800154188752e-05  1.5632578460227728e-05  1.4002527529412367e-05  1.2396137390104923e-05  1.0839803120827831e-05  9.3582554615044936e-06  7.9726958567327387e-06  6.6985935158707499e-06  5.5416423329267932e-06  4.4861582613922716e-06  3.4570528126216614e-06  2.2011732865647580e-06  0.0000000000000000e+00  6.0000000000000002e-05  5.5858315630885550e-05  5.4624233133063768e-05  5.4228517838429577e-05  5.4087762922351778e-05  5.4016841087176224e-05  5.3952206755469544e-05  5.3867037936564058e-05  5.3744446245446274e-05  5.3569086168571202e-05  5.3324790500758886e-05  5.2994358653788527e-05  5.2560272918842018e-05  5.2005909748123501e-05  5.1316988281693618e-05  5.0482750713266984e-05  4.9493999697068984e-05  4.8315077395064581e-05  4.6624215033018619e-05  4.1596201127920416e-05  3.4339564701757283e-05  2.8828304533449238e-05  2.4820925516457862e-05  2.1778838146685039e-05  1.9402893936964442e-05  1.7510298741133204e-05  1.5981534267426874e-05  1.4743214209489757e-05  1.3782591936622659e-05  1.3229883520128911e-05  1.3639446748013579e-05  1.6806724099114512e-05  2.2455628626094356e-05  2.3703737915603557e-05  2.3141833175892452e-05  2.1944701875185754e-05  2.0507578527805352e-05  1.8960632144613898e-05  1.7354527734065940e-05  1.5719171204842793e-05  1.4080878426108737e-05  1.2466243082698990e-05  1.0901788216200472e-05  9.4123789801095343e-06  8.0193450674103846e-06  6.7382689442810137e-06  5.5749390397179109e-06  4.5137499130439354e-06  3.4796566699366327e-06  2.2191244720336258e-06  0.0000000000000000e+00  6.0000000000000002e-05  5.6100338099150539e-05  5.4886367471966941e-05  5.4496721460262850e-05  5.4357828531130261e-05  5.4287427286665919e-05  5.4222841086417477e-05  5.4137496293158432e-05  5.4014549254217298e-05  5.3838625964884421e-05  5.3593498943492574e-05  5.3261890050952337e-05  5.2826194111567083e-05  5.2269696803730252e-05  5.1578032036023729e-05  5.0740384000420646e-05  4.9747648215384970e-05  4.8565427393287638e-05  4.6877194128256729e-05  4.2207545699324552e-05  3.5366760695865856e-05  2.9861994882145214e-05  2.5778063091377605e-05  2.2655292054553300e-05  2.0207258645841274e-05  1.8252469841261407e-05  1.6670190306782683e-05  1.5385039348087979e-05  1.4381302514529008e-05  1.3783268106426291e-05  1.4127435195072085e-05  1.7133577358334464e-05  2.2641601478002606e-05  2.3854219883651443e-05  2.3273007462634042e-05  2.2064698623238040e-05  2.0618934208815705e-05  1.9063938530903832e-05  1.7449783796325341e-05  1.5806242943649584e-05  1.4159664635907389e-05  1.2536741929085659e-05  1.0964124931824386e-05  9.4668134083445460e-06  8.0662658370577759e-06  6.7781785492891048e-06  5.6084350179953516e-06  4.5415079282028775e-06  3.5023859085787630e-06  2.2370402444001864e-06  0.0000000000000000e+00  6.0000000000000002e-05  5.6336343149749458e-05  5.5147646520903659e-05  5.4765585500255228e-05  5.4629031801418054e-05  5.4559301738921857e-05  5.4494810949766137e-05  5.4409304551134786e-05  5.4286005750492159e-05  5.4109518879991531e-05  5.3863558127078438e-05  5.3530768160589781e-05  5.3093456161741580e-05  5.2534816691890150e-05  5.1840398240135779e-05  5.0999328682263621e-05  5.0002614284689576e-05  4.8817257268631146e-05  4.7135015597096479e-05  4.2786146922084511e-05  3.6333873067881404e-05  3.0872540317534440e-05  2.6731605157525398e-05  2.3538670330061404e-05  2.1024664400122240e-05  1.9011365277331177e-05  1.7377760371496974e-05  1.6046949641057477e-05  1.5000419537547144e-05  1.4356343287285906e-05  1.4632978011400084e-05  1.7482654330552756e-05  2.2842527745138754e-05  2.4010155270919971e-05  2.3406362380281611e-05  2.2185798561563899e-05  2.0731030394862031e-05  1.9167846417150840e-05  1.7545571169028167e-05  1.5893796339888320e-05  1.4238888585144735e-05  1.2607636087074324e-05  1.1026815144275395e-05  9.5215603408749276e-06  8.1134594860362184e-06  6.8183233871227247e-06  5.6421310601887496e-06  4.5694328154233411e-06  3.5252409170196044e-06  2.2549256062139539e-06  0.0000000000000000e+00  6.0000000000000002e-05  5.6566442109068620e-05  5.5408105275572069e-05  5.5035125182653256e-05  5.4901382195237618e-05  5.4832472105456873e-05  5.4768123447942069e-05  5.4682469648345397e-05  5.4558822635215225e-05  5.4381771820744923e-05  5.4134974979036173e-05  5.3800999934694677e-05  5.3362066043099410e-05  5.2801276398425481e-05  5.2104093866328225e-05  5.1259591601189754e-05  5.0258903764815094e-05  4.9070567731684530e-05  4.7397306629148254e-05  4.3336812969314311e-05  3.7246017186378692e-05  3.1858934384022967e-05  2.7680504706425235e-05  2.4428421317735756e-05  2.1855003842278831e-05  1.9787209990840741e-05  1.8104705843337763e-05  1.6729570692363875e-05  1.5640681180712771e-05  1.4949937360769755e-05  1.5157111494243777e-05  1.7853530639047673e-05  2.3058312207882202e-05  2.4171504981213125e-05  2.3541884406476358e-05  2.2307999573505491e-05  2.0843868634861278e-05  1.9272358378613896e-05  1.7641892599654711e-05  1.5981834029572207e-05  1.4318552696832016e-05  1.2678927726823338e-05  1.1089860755804239e-05  9.5766214102098790e-06  8.1609273836164367e-06  6.8587045734945779e-06  5.6760280319686975e-06  4.5975251885689918e-06  3.5482222992921267e-06  2.2727865694259563e-06  0.0000000000000000e+00  6.0000000000000002e-05  5.6790813400978899e-05  5.5667788622687763e-05  5.5305358933139016e-05  5.5174890204887050e-05  5.5106946393945359e-05  5.5042785811664592e-05  5.4956998579719863e-05  5.4833006840855066e-05  5.4655391713681813e-05  5.4407756438402797e-05  5.4072592329269475e-05  5.3632030725846174e-05  5.3069082898157173e-05  5.2369125868404220e-05  5.1521179569233611e-05  5.0516522422323624e-05  4.9325359159896349e-05  4.7663724152078546e-05  4.3863680324375574e-05  3.8108505448451792e-05  3.2820769156075502e-05  2.8623977041259317e-05  2.5324137333868090e-05  2.2698267692408332e-05  2.0580306731992907e-05  1.8851555594745076e-05  1.7433589460850154e-05  1.6302882191893414e-05  1.5564925663233129e-05  1.5700842286332825e-05  1.8245982070745003e-05  2.3288818572047942e-05  2.4338210763835434e-05  2.3679553231701852e-05  2.2431297383139970e-05  2.0957449794105844e-05  1.9377476770045702e-05  1.7738750762437978e-05  1.6070358625904174e-05  1.4398659392759040e-05  1.2750619030637364e-05  1.1153263691780523e-05  9.6319982818456627e-06  8.2086709409649280e-06  6.8993232745079357e-06  5.7101268605839151e-06  4.6257857501481639e-06  3.5713308477180673e-06  2.2906299364092968e-06  0.0000000000000000e+00  6.0000000000000002e-05  5.7009688855505809e-05  5.5926751004078410e-05  5.5576308272912092e-05  5.5449567320276786e-05  5.5382732948536668e-05  5.5318805397792120e-05  5.5232898397902067e-05  5.5108565333459043e-05  5.4930385508190574e-05  5.4681909460031543e-05  5.4345552309851536e-05  5.3903357183481674e-05  5.3338243163012698e-05  5.2635501190910259e-05  5.1784099377821724e-05  5.0775475938985374e-05  4.9581631339594466e-05  4.7933954417408234e-05  4.4370315254557035e-05  3.8926563951735862e-05  3.3758191821703328e-05  2.9561511030245109e-05  2.6225568120163503e-05  2.3554555508337611e-05  2.1391044454052688e-05  1.9618912692673809e-05  1.8159759830610110e-05  1.6987878811693805e-05  1.6202235263501245e-05  1.6265166297668227e-05  1.8659937961971329e-05  2.3533872451038331e-05  2.4510195354474660e-05  2.3819341971377336e-05  2.2555685630768709e-05  2.1071774081630828e-05  1.9483203737484846e-05  1.7836148264702145e-05  1.6159372723006748e-05  1.4479211095252404e-05  1.2822712192804214e-05  1.1217025898584578e-05  9.6876926502617406e-06  8.2566916053656726e-06  6.9401806991682356e-06  5.7444285252584480e-06  4.6542152775434670e-06  3.5945675199380736e-06  2.3084631234898910e-06  0.0000000000000000e+00  6.0000000000000002e-05  5.7223342529341151e-05  5.6185056116113809e-05  5.5847997714376125e-05  5.5725425996847030e-05  5.5659840440265237e-05  5.5596189687061402e-05  5.5510176213644115e-05  5.5385505114327873e-05  5.5206760179137445e-05  5.4957441018163445e-05  5.4619886856099727e-05  5.4176052398455588e-05  5.3608764168741623e-05  5.2903226776795582e-05  5.2048357805967310e-05  5.1035769919898562e-05  4.9839383291106680e-05  4.8207711894091820e-05  4.4859802680184180e-05  3.9705186095334943e-05  3.4671846873311536e-05  3.0492877258854825e-05  2.7132633953258558e-05  2.4424086843862669e-05  2.2219907230120915e-05  2.0407461580783350e-05  1.8908908562827403e-05  1.7696593939857326e-05  1.6862849811186802e-05  1.6851084361616595e-05  1.9095447759379415e-05  2.3793263714392653e-05  2.4687362639630892e-05  2.3961217372564826e-05  2.2681155945989464e-05  2.1186841076234230e-05  1.9589541229065547e-05  1.7934087652429926e-05  1.6248878899103579e-05  1.4560210228656851e-05  1.2895209419468536e-05  1.1281149341871031e-05  9.7437062356210499e-06  8.3049908554597920e-06  6.9812780932164860e-06  5.7789340492822915e-06  4.6828146116169111e-06  3.6179334194028068e-06  2.3262940197914783e-06  0.0000000000000000e+00  6.0000000000000002e-05  5.7432081622327503e-05  5.6442776618113764e-05  5.6120454656097985e-05  5.6002479623305756e-05  5.5938277857332946e-05  5.5874946281673314e-05  5.5788839195979230e-05  5.5663833221370940e-05  5.5484522729047052e-05  5.5234358109399671e-05  5.4895602965607682e-05  5.4450123366863188e-05  5.3880652900486394e-05  5.3172309573773482e-05  5.2313961627190636e-05  5.1297409901273074e-05  5.0098613160042319e-05  4.8484737681002931e-05  4.5334823015899426e-05  4.0449067008956088e-05  3.5562812415020703e-05  3.1418132790943602e-05  2.8045438017143091e-05  2.5307212527602203e-05  2.3067483505342603e-05  2.1217975614791686e-05  1.9681941554959071e-05  1.8430022542231246e-05  1.7547814631238026e-05  1.7459615483072647e-05  1.9552657092584895e-05  2.4066748190030062e-05  2.4869597853534672e-05  2.4105140020443594e-05  2.2807698020198456e-05  2.1302649751834439e-05  1.9696491005159158e-05  1.8032571415240638e-05  1.6338879719265535e-05  1.4641659220595471e-05  1.2968112928539636e-05  1.1345636005140813e-05  9.8000407810513969e-06  8.3535701973237285e-06  7.0226167340501310e-06  5.8136444934935424e-06  4.7115846472633796e-06  3.6414297786498799e-06  2.3441308753846821e-06  0.0000000000000000e+00  6.0000000000000002e-05  5.7636239141759443e-05  5.6699993832270210e-05  5.6393709275274601e-05  5.6280742488598419e-05  5.6218054495089935e-05  5.6155082902690254e-05  5.6068894572193576e-05  5.5943556730192786e-05  5.5763680189914031e-05  5.5512667755180618e-05  5.5172707657081005e-05  5.4725577102351782e-05  5.4153916357412065e-05  5.3442756539616572e-05  5.2580917615397032e-05  5.1560401357932133e-05  5.0359318160647930e-05  4.8764797598866093e-05  4.5797718081632976e-05  4.1162585029827449e-05  3.6432537152424353e-05  3.2337622694640167e-05  2.8964277855830784e-05  2.6204425901174898e-05  2.3934475572899734e-05  2.2051324877025756e-05  2.0479850364334675e-05  1.9189237295266412e-05  1.8258242105056025e-05  1.8091808330102763e-05  2.0031790733971606e-05  2.4354048733639131e-05  2.5056767814921783e-05  2.4251064548720575e-05  2.2935299679968886e-05  2.1419198502703230e-05  1.9804054648098250e-05  1.8131601990925953e-05  1.6429377737813327e-05  1.4723560503054041e-05  1.3041424949630510e-05  1.1410487888568963e-05  9.8566980504061865e-06  8.4024311612376995e-06  7.0641979265380382e-06  5.8485609509032753e-06  4.7405263255606531e-06  3.6650579448245097e-06  2.3619822137186797e-06  0.0000000000000000e+00  6.0000000000000002e-05  5.7836168023069355e-05  5.6956797424148016e-05  5.6667794416385612e-05  5.6560229747661888e-05  5.6499179945583095e-05  5.6436607387220380e-05  5.6350349627614262e-05  5.6224682754952966e-05  5.6044239624709710e-05  5.5792377003859064e-05  5.5451207972991877e-05  5.5002420639379102e-05  5.4428561556563553e-05  5.3714574646577475e-05  5.2849232549904465e-05  5.1824749710602387e-05  5.0621494559638348e-05  4.9047680081846795e-05  4.6250547381141498e-05  4.1849809964562135e-05  3.7282782439198278e-05  3.3251978805881064e-05  2.9889655855985943e-05  2.7116373924302894e-05  2.4821709204471851e-05  2.2908484224100536e-05  2.1303718969687892e-05  1.9975394465295647e-05  1.8995317353130750e-05  1.8748751468975907e-05  2.0533140563716209e-05  2.4654855693427456e-05  2.5248721209879160e-05  2.4398939857314234e-05  2.3063946962423230e-05  2.1536485168992921e-05  1.9912233571681973e-05  1.8231181769662001e-05  1.6520375500451416e-05  1.4805916513326317e-05  1.3115147724025487e-05  1.1475707008044397e-05  9.9136798264201977e-06  8.4515752990219415e-06  7.1060229995700772e-06  5.8836845422580021e-06  4.7696406272260775e-06  3.6888193670075041e-06  2.3798567641375460e-06  0.0000000000000000e+00  6.0000000000000002e-05  5.8032236462957934e-05  5.7213285057535765e-05  5.6942745475060315e-05  5.6840957385631301e-05  5.6781664086576200e-05  5.6719527685372141e-05  5.6633211705229063e-05  5.6507218449034462e-05  5.6326208128636900e-05  5.6073492932439871e-05  5.5731110981804705e-05  5.5280661035939853e-05  5.470459553608919