<?xml version="1.0"?>
<VTKFile type="UnstructuredGrid"  version="0.1"  >
<UnstructuredGrid>
<Piece  NumberOfPoints="2601" NumberOfCells="5000">
<Points>
<DataArray  type="Float64"  NumberOfComponents="3"  format="ascii">-1 0 0  -0.96 0 0  -0.92 0 0  -0.88 0 0  -0.84 0 0  -0.8 0 0  -0.76 0 0  -0.72 0 0  -0.6799999999999999 0 0  -0.64 0 0  -0.6 0 0  -0.5600000000000001 0 0  -0.52 0 0  -0.48 0 0  -0.4399999999999999 0 0  -0.4 0 0  -0.36 0 0  -0.32 0 0  -0.28 0 0  -0.24 0 0  -0.2 0 0  -0.16 0 0  -0.12 0 0  -0.07999999999999996 0 0  -0.04000000000000004 0 0  0 0 0  0.04000000000000004 0 0  0.08000000000000007 0 0  0.1200000000000001 0 0  0.1599999999999999 0 0  0.2 0 0  0.24 0 0  0.28 0 0  0.3200000000000001 0 0  0.3600000000000001 0 0  0.3999999999999999 0 0  0.4399999999999999 0 0  0.48 0 0  0.52 0 0  0.5600000000000001 0 0  0.6000000000000001 0 0  0.6399999999999999 0 0  0.6799999999999999 0 0  0.72 0 0  0.76 0 0  0.8 0 0  0.8400000000000001 0 0  0.8799999999999999 0 0  0.9199999999999999 0 0  0.96 0 0  1 0 0  -1 0.016 0  -0.96 0.016 0  -0.92 0.016 0  -0.88 0.016 0  -0.84 0.016 0  -0.8 0.016 0  -0.76 0.016 0  -0.72 0.016 0  -0.6799999999999999 0.016 0  -0.64 0.016 0  -0.6 0.016 0  -0.5600000000000001 0.016 0  -0.52 0.016 0  -0.48 0.016 0  -0.4399999999999999 0.016 0  -0.4 0.016 0  -0.36 0.016 0  -0.32 0.016 0  -0.28 0.016 0  -0.24 0.016 0  -0.2 0.016 0  -0.16 0.016 0  -0.12 0.016 0  -0.07999999999999996 0.016 0  -0.04000000000000004 0.016 0  0 0.016 0  0.04000000000000004 0.016 0  0.08000000000000007 0.016 0  0.1200000000000001 0.016 0  0.1599999999999999 0.016 0  0.2 0.016 0  0.24 0.016 0  0.28 0.016 0  0.3200000000000001 0.016 0  0.3600000000000001 0.016 0  0.3999999999999999 0.016 0  0.4399999999999999 0.016 0  0.48 0.016 0  0.52 0.016 0  0.5600000000000001 0.016 0  0.6000000000000001 0.016 0  0.6399999999999999 0.016 0  0.6799999999999999 0.016 0  0.72 0.016 0  0.76 0.016 0  0.8 0.016 0  0.8400000000000001 0.016 0  0.8799999999999999 0.016 0  0.9199999999999999 0.016 0  0.96 0.016 0  1 0.016 0  -1 0.032 0  -0.96 0.032 0  -0.92 0.032 0  -0.88 0.032 0  -0.84 0.032 0  -0.8 0.032 0  -0.76 0.032 0  -0.72 0.032 0  -0.6799999999999999 0.032 0  -0.64 0.032 0  -0.6 0.032 0  -0.5600000000000001 0.032 0  -0.52 0.032 0  -0.48 0.032 0  -0.4399999999999999 0.032 0  -0.4 0.032 0  -0.36 0.032 0  -0.32 0.032 0  -0.28 0.032 0  -0.24 0.032 0  -0.2 0.032 0  -0.16 0.032 0  -0.12 0.032 0  -0.07999999999999996 0.032 0  -0.04000000000000004 0.032 0  0 0.032 0  0.04000000000000004 0.032 0  0.08000000000000007 0.032 0  0.1200000000000001 0.032 0  0.1599999999999999 0.032 0  0.2 0.032 0  0.24 0.032 0  0.28 0.032 0  0.3200000000000001 0.032 0  0.3600000000000001 0.032 0  0.3999999999999999 0.032 0  0.4399999999999999 0.032 0  0.48 0.032 0  0.52 0.032 0  0.5600000000000001 0.032 0  0.6000000000000001 0.032 0  0.6399999999999999 0.032 0  0.6799999999999999 0.032 0  0.72 0.032 0  0.76 0.032 0  0.8 0.032 0  0.8400000000000001 0.032 0  0.8799999999999999 0.032 0  0.9199999999999999 0.032 0  0.96 0.032 0  1 0.032 0  -1 0.04800000000000001 0  -0.96 0.04800000000000001 0  -0.92 0.04800000000000001 0  -0.88 0.04800000000000001 0  -0.84 0.04800000000000001 0  -0.8 0.04800000000000001 0  -0.76 0.04800000000000001 0  -0.72 0.04800000000000001 0  -0.6799999999999999 0.04800000000000001 0  -0.64 0.04800000000000001 0  -0.6 0.04800000000000001 0  -0.5600000000000001 0.04800000000000001 0  -0.52 0.04800000000000001 0  -0.48 0.04800000000000001 0  -0.4399999999999999 0.04800000000000001 0  -0.4 0.04800000000000001 0  -0.36 0.04800000000000001 0  -0.32 0.04800000000000001 0  -0.28 0.04800000000000001 0  -0.24 0.04800000000000001 0  -0.2 0.04800000000000001 0  -0.16 0.04800000000000001 0  -0.12 0.04800000000000001 0  -0.07999999999999996 0.04800000000000001 0  -0.04000000000000004 0.04800000000000001 0  0 0.04800000000000001 0  0.04000000000000004 0.04800000000000001 0  0.08000000000000007 0.04800000000000001 0  0.1200000000000001 0.04800000000000001 0  0.1599999999999999 0.04800000000000001 0  0.2 0.04800000000000001 0  0.24 0.04800000000000001 0  0.28 0.04800000000000001 0  0.3200000000000001 0.04800000000000001 0  0.3600000000000001 0.04800000000000001 0  0.3999999999999999 0.04800000000000001 0  0.4399999999999999 0.04800000000000001 0  0.48 0.04800000000000001 0  0.52 0.04800000000000001 0  0.5600000000000001 0.04800000000000001 0  0.6000000000000001 0.04800000000000001 0  0.6399999999999999 0.04800000000000001 0  0.6799999999999999 0.04800000000000001 0  0.72 0.04800000000000001 0  0.76 0.04800000000000001 0  0.8 0.04800000000000001 0  0.8400000000000001 0.04800000000000001 0  0.8799999999999999 0.04800000000000001 0  0.9199999999999999 0.04800000000000001 0  0.96 0.04800000000000001 0  1 0.04800000000000001 0  -1 0.064 0  -0.96 0.064 0  -0.92 0.064 0  -0.88 0.064 0  -0.84 0.064 0  -0.8 0.064 0  -0.76 0.064 0  -0.72 0.064 0  -0.6799999999999999 0.064 0  -0.64 0.064 0  -0.6 0.064 0  -0.5600000000000001 0.064 0  -0.52 0.064 0  -0.48 0.064 0  -0.4399999999999999 0.064 0  -0.4 0.064 0  -0.36 0.064 0  -0.32 0.064 0  -0.28 0.064 0  -0.24 0.064 0  -0.2 0.064 0  -0.16 0.064 0  -0.12 0.064 0  -0.07999999999999996 0.064 0  -0.04000000000000004 0.064 0  0 0.064 0  0.04000000000000004 0.064 0  0.08000000000000007 0.064 0  0.1200000000000001 0.064 0  0.1599999999999999 0.064 0  0.2 0.064 0  0.24 0.064 0  0.28 0.064 0  0.3200000000000001 0.064 0  0.3600000000000001 0.064 0  0.3999999999999999 0.064 0  0.4399999999999999 0.064 0  0.48 0.064 0  0.52 0.064 0  0.5600000000000001 0.064 0  0.6000000000000001 0.064 0  0.6399999999999999 0.064 0  0.6799999999999999 0.064 0  0.72 0.064 0  0.76 0.064 0  0.8 0.064 0  0.8400000000000001 0.064 0  0.8799999999999999 0.064 0  0.9199999999999999 0.064 0  0.96 0.064 0  1 0.064 0  -1 0.08 0  -0.96 0.08 0  -0.92 0.08 0  -0.88 0.08 0  -0.84 0.08 0  -0.8 0.08 0  -0.76 0.08 0  -0.72 0.08 0  -0.6799999999999999 0.08 0  -0.64 0.08 0  -0.6 0.08 0  -0.5600000000000001 0.08 0  -0.52 0.08 0  -0.48 0.08 0  -0.4399999999999999 0.08 0  -0.4 0.08 0  -0.36 0.08 0  -0.32 0.08 0  -0.28 0.08 0  -0.24 0.08 0  -0.2 0.08 0  -0.16 0.08 0  -0.12 0.08 0  -0.07999999999999996 0.08 0  -0.04000000000000004 0.08 0  0 0.08 0  0.04000000000000004 0.08 0  0.08000000000000007 0.08 0  0.1200000000000001 0.08 0  0.1599999999999999 0.08 0  0.2 0.08 0  0.24 0.08 0  0.28 0.08 0  0.3200000000000001 0.08 0  0.3600000000000001 0.08 0  0.3999999999999999 0.08 0  0.4399999999999999 0.08 0  0.48 0.08 0  0.52 0.08 0  0.5600000000000001 0.08 0  0.6000000000000001 0.08 0  0.6399999999999999 0.08 0  0.6799999999999999 0.08 0  0.72 0.08 0  0.76 0.08 0  0.8 0.08 0  0.8400000000000001 0.08 0  0.8799999999999999 0.08 0  0.9199999999999999 0.08 0  0.96 0.08 0  1 0.08 0  -1 0.09600000000000002 0  -0.96 0.09600000000000002 0  -0.92 0.09600000000000002 0  -0.88 0.09600000000000002 0  -0.84 0.09600000000000002 0  -0.8 0.09600000000000002 0  -0.76 0.09600000000000002 0  -0.72 0.09600000000000002 0  -0.6799999999999999 0.09600000000000002 0  -0.64 0.09600000000000002 0  -0.6 0.09600000000000002 0  -0.5600000000000001 0.09600000000000002 0  -0.52 0.09600000000000002 0  -0.48 0.09600000000000002 0  -0.4399999999999999 0.09600000000000002 0  -0.4 0.09600000000000002 0  -0.36 0.09600000000000002 0  -0.32 0.09600000000000002 0  -0.28 0.09600000000000002 0  -0.24 0.09600000000000002 0  -0.2 0.09600000000000002 0  -0.16 0.09600000000000002 0  -0.12 0.09600000000000002 0  -0.07999999999999996 0.09600000000000002 0  -0.04000000000000004 0.09600000000000002 0  0 0.09600000000000002 0  0.04000000000000004 0.09600000000000002 0  0.08000000000000007 0.09600000000000002 0  0.1200000000000001 0.09600000000000002 0  0.1599999999999999 0.09600000000000002 0  0.2 0.09600000000000002 0  0.24 0.09600000000000002 0  0.28 0.09600000000000002 0  0.3200000000000001 0.09600000000000002 0  0.3600000000000001 0.09600000000000002 0  0.3999999999999999 0.09600000000000002 0  0.4399999999999999 0.09600000000000002 0  0.48 0.09600000000000002 0  0.52 0.09600000000000002 0  0.5600000000000001 0.09600000000000002 0  0.6000000000000001 0.09600000000000002 0  0.6399999999999999 0.09600000000000002 0  0.6799999999999999 0.09600000000000002 0  0.72 0.09600000000000002 0  0.76 0.09600000000000002 0  0.8 0.09600000000000002 0  0.8400000000000001 0.09600000000000002 0  0.8799999999999999 0.09600000000000002 0  0.9199999999999999 0.09600000000000002 0  0.96 0.09600000000000002 0  1 0.09600000000000002 0  -1 0.112 0  -0.96 0.112 0  -0.92 0.112 0  -0.88 0.112 0  -0.84 0.112 0  -0.8 0.112 0  -0.76 0.112 0  -0.72 0.112 0  -0.6799999999999999 0.112 0  -0.64 0.112 0  -0.6 0.112 0  -0.5600000000000001 0.112 0  -0.52 0.112 0  -0.48 0.112 0  -0.4399999999999999 0.112 0  -0.4 0.112 0  -0.36 0.112 0  -0.32 0.112 0  -0.28 0.112 0  -0.24 0.112 0  -0.2 0.112 0  -0.16 0.112 0  -0.12 0.112 0  -0.07999999999999996 0.112 0  -0.04000000000000004 0.112 0  0 0.112 0  0.04000000000000004 0.112 0  0.08000000000000007 0.112 0  0.1200000000000001 0.112 0  0.1599999999999999 0.112 0  0.2 0.112 0  0.24 0.112 0  0.28 0.112 0  0.3200000000000001 0.112 0  0.3600000000000001 0.112 0  0.3999999999999999 0.112 0  0.4399999999999999 0.112 0  0.48 0.112 0  0.52 0.112 0  0.5600000000000001 0.112 0  0.6000000000000001 0.112 0  0.6399999999999999 0.112 0  0.6799999999999999 0.112 0  0.72 0.112 0  0.76 0.112 0  0.8 0.112 0  0.8400000000000001 0.112 0  0.8799999999999999 0.112 0  0.9199999999999999 0.112 0  0.96 0.112 0  1 0.112 0  -1 0.128 0  -0.96 0.128 0  -0.92 0.128 0  -0.88 0.128 0  -0.84 0.128 0  -0.8 0.128 0  -0.76 0.128 0  -0.72 0.128 0  -0.6799999999999999 0.128 0  -0.64 0.128 0  -0.6 0.128 0  -0.5600000000000001 0.128 0  -0.52 0.128 0  -0.48 0.128 0  -0.4399999999999999 0.128 0  -0.4 0.128 0  -0.36 0.128 0  -0.32 0.128 0  -0.28 0.128 0  -0.24 0.128 0  -0.2 0.128 0  -0.16 0.128 0  -0.12 0.128 0  -0.07999999999999996 0.128 0  -0.04000000000000004 0.128 0  0 0.128 0  0.04000000000000004 0.128 0  0.08000000000000007 0.128 0  0.1200000000000001 0.128 0  0.1599
[...]
<PointData  Scalars="f_100"> 
<DataArray  type="Float64"  Name="f_100"  format="ascii">6.0000000000000002e-05  5.4271683161825845e-05  5.2986668168329182e-05  5.2529480011591223e-05  5.2290336467787574e-05  5.2064580665133172e-05  5.1768282752577492e-05  5.1354112403351028e-05  5.0787032039489761e-05  5.0039251212171507e-05  4.9091410097031415e-05  4.7935386977998813e-05  4.6576764352476829e-05  4.5035926141413538e-05  4.3347241570525855e-05  4.1555990462207413e-05  3.9711097569458656e-05  3.7834702359315609e-05  3.5768758443449165e-05  2.8630251917039636e-05  2.0602342120481349e-05  1.6919274916193660e-05  1.4454814270191097e-05  1.2661128882931154e-05  1.1290363576774178e-05  1.0195625079488768e-05  9.2818105896705350e-06  8.4922498202537707e-06  7.8196688901923471e-06  7.3681957958783182e-06  7.5770817898585185e-06  1.0278150145701994e-05  1.4144908444593533e-05  1.4272010863363355e-05  1.3082234594138372e-05  1.1479101190270308e-05  9.8065871738447606e-06  8.2003841377307334e-06  6.7229839971220948e-06  5.4062081754749539e-06  4.2644996947056796e-06  3.2999042544389773e-06  2.5050456166296911e-06  1.8657510045901818e-06  1.3635625731198507e-06  9.7798480316022267e-07  6.8822159633414224e-07  4.7396206934459045e-07  3.1383731542835908e-07  1.7677855832991977e-07  0.0000000000000000e+00  6.0000000000000002e-05  5.4545798108691535e-05  5.3254020661636907e-05  5.2793706643866320e-05  5.2553331530594125e-05  5.2326762220054482e-05  5.2029511825388047e-05  5.1613971445535608e-05  5.1044904386249044e-05  5.0294348910295346e-05  4.9342799841265847e-05  4.8182030820516577e-05  4.6817578585332147e-05  4.5269854691807708e-05  4.3573335922187017e-05  4.1773487052959468e-05  3.9919494637460157e-05  3.8034028704966025e-05  3.5941882336027463e-05  2.9385936032192955e-05  2.1638576113283827e-05  1.7769924559233588e-05  1.5169349825738239e-05  1.3278468117869340e-05  1.1835309306296592e-05  1.0684507884603700e-05  9.7253519256641654e-06  8.8971628047854336e-06  8.1895297380623376e-06  7.7034556998690316e-06  7.8734627946513383e-06  1.0389549589114759e-05  1.4211548834044553e-05  1.4350016892910751e-05  1.3156160349324556e-05  1.1545313227792333e-05  9.8641280170374706e-06  8.2492786206281189e-06  6.7637011691882866e-06  5.4394578387586263e-06  4.2911273051201954e-06  3.3208169711156410e-06  2.5211531217224079e-06  1.8779188877424247e-06  1.3725788229364297e-06  9.8453939662947257e-07  6.9289810383470382e-07  4.7723978817666532e-07  3.1610372933778420e-07  1.7836086344351701e-07  0.0000000000000000e+00  6.0000000000000002e-05  5.4815866885955234e-05  5.3520551994554756e-05  5.3058575988419455e-05  5.2817429710154123e-05  5.2590190679325204e-05  5.2292030556147260e-05  5.1875129512704300e-05  5.1304072669914318e-05  5.0550733147836103e-05  4.9595461914253871e-05  4.8429928076199116e-05  4.7059622423421205e-05  4.5504984080767981e-05  4.3800597777186069e-05  4.1992115664220816e-05  4.0129003550567516e-05  3.8234605538053938e-05  3.6120979092491462e-05  3.0076049622683171e-05  2.2666686784089925e-05  1.8618760171337092e-05  1.5889966431219932e-05  1.3905646854676449e-05  1.2392031560956816e-05  1.1186191943467706e-05  1.0182171701535219e-05  9.3154201268811448e-06  8.5723601964209672e-06  8.0505274137360204e-06  8.1771715660313773e-06  1.0526917325228951e-05  1.4288774222223900e-05  1.4431858824217927e-05  1.3231574685757281e-05  1.1612236422658703e-05  9.9221071011792987e-06  8.2984964630856187e-06  6.8046770870162917e-06  5.4729191983012025e-06  4.3179275490525691e-06  3.3418686265894011e-06  2.5373705767170088e-06  1.8901722055391975e-06  1.3816602253061502e-06  9.9114275154982549e-07  6.9761044470988326e-07  4.8054337191859663e-07  3.1838786595996067e-07  1.7994548384224641e-07  0.0000000000000000e+00  6.0000000000000002e-05  5.5081093539588086e-05  5.3786221548099863e-05  5.3324081336590634e-05  5.3082633630380570e-05  5.2854871715451565e-05  5.2555845719873724e-05  5.2137593883282408e-05  5.1564544481686032e-05  5.0808411744407340e-05  4.9849404287112268e-05  4.8679086767909554e-05  4.7302903814905678e-05  4.5741322036903561e-05  4.4029034491224385e-05  4.2211883084891595e-05  4.0339629923956856e-05  3.8436424637195032e-05  3.6305668973594557e-05  3.0709645400238942e-05  2.3660279911996888e-05  1.9461041093171037e-05  1.6614621035135604e-05  1.4541619718620998e-05  1.2960040850129783e-05  1.1700537187801113e-05  1.0652363115275087e-05  9.7472784071011196e-06  8.9685458210223260e-06  8.4099537653876843e-06  8.4896503174637923e-06  1.0687157939138973e-05  1.4376752608253388e-05  1.4517596373640235e-05  1.3308501893419796e-05  1.1679879763815559e-05  9.9805281390352409e-06  8.3480393487385877e-06  6.8459124694575530e-06  5.5065924053884343e-06  4.3449002065980915e-06  3.3630587616756509e-06  2.5536973864723901e-06  1.9025103088349578e-06  1.3908061383132172e-06  9.9779427384961182e-07  7.0235809204718065e-07  4.8387235233821010e-07  3.2068926502470327e-07  1.8153164812584830e-07  0.0000000000000000e+00  6.0000000000000002e-05  5.5340919848769388e-05  5.4051004919243609e-05  5.3590220089250624e-05  5.3348947191400419e-05  5.3120811369730930e-05  5.2820964148663087e-05  5.2401371765459693e-05  5.1826327272453070e-05  5.1067392329772840e-05  5.0104634704538750e-05  4.8929514669996947e-05  4.7547430455276232e-05  4.5978876052437623e-05  4.4258653220707250e-05  4.2432795961708758e-05  4.0551379310923401e-05  3.8639481360813047e-05  3.6495570491352836e-05  3.1294723849710933e-05  2.4606607580903027e-05  2.0293384172754051e-05  1.7341578274178812e-05  1.5185494653895309e-05  1.3538946363714066e-05  1.2227474646834454e-05  1.1136073078820469e-05  1.0193033829313820e-05  9.3784937726107209e-06  8.7822618306770635e-06  8.8121084580649978e-06  1.0868057667073397e-05  1.4475608686239505e-05  1.4607274092521648e-05  1.3386959911543803e-05  1.1748250219997473e-05  1.0039394277757773e-05  8.3979088881752432e-06  6.8874081453375627e-06  5.5404777981725761e-06  4.3720452780977044e-06  3.3843871474717777e-06  2.5701331808010207e-06  1.9149327574665807e-06  1.4000161062570075e-06  1.0044935295971593e-06  7.0714065317052822e-07  4.8722637466577693e-07  3.2300757498201291e-07  1.8311889011093637e-07  0.0000000000000000e+00  6.0000000000000002e-05  5.5594982023638707e-05  5.4314891809042814e-05  5.3856993533166424e-05  5.3616375508335014e-05  5.3388016043073226e-05  5.3087392743335529e-05  5.2666470320495630e-05  5.2089428385060981e-05  5.1327682383813170e-05  5.0361160730951024e-05  4.9181219358303930e-05  4.7793209838137590e-05  4.6217653431147124e-05  4.4489460963958214e-05  4.2654860828658845e-05  4.0764257200390798e-05  3.8843773583741336e-05  3.6690310297747752e-05  3.1838262133545612e-05  2.5500856622439246e-05  2.1113096304110786e-05  1.8069311414843036e-05  1.5836486687109689e-05  1.4128427453195218e-05  1.2766988396077987e-05  1.1633491568001668e-05  1.0653017794540658e-05  9.8026362883932616e-06  9.1679820917559266e-06  9.1455882721183872e-06  1.1068044259685274e-05  1.4585424632525238e-05  1.4700921668447893e-05  1.3466960662255795e-05  1.1817352855200542e-05  1.0098708125893179e-05  8.4481066107919255e-06  6.9291650286934560e-06  5.5745758678915146e-06  4.3993629456109474e-06  3.4058537451885577e-06  2.5866777750993579e-06  1.9274392835215426e-06  1.4092898267871534e-06  1.0112402166320648e-06  7.1195784578327762e-07  4.9060517743348504e-07  3.2534253428841801e-07  1.8470699025829968e-07  0.0000000000000000e+00  6.0000000000000002e-05  5.5843074771237596e-05  5.4577884536162702e-05  5.4124406659463826e-05  5.3884924860615509e-05  5.3656492488386622e-05  5.3355138483044991e-05  5.2932896681952506e-05  5.2353855080930824e-05  5.1589289269478851e-05  5.0618989788509707e-05  4.9434208251355859e-05  4.8040249297013474e-05  4.6457661327799698e-05  4.4721464595103431e-05  4.2878084131207899e-05  4.0978269017093588e-05  3.9049300848316262e-05  3.6889530062239617e-05  3.2346294487825474e-05  2.6342726610795850e-05  2.1917976715985034e-05  1.8796471665169579e-05  1.6493900410129905e-05  1.4728222565626890e-05  1.3319108801769317e-05  1.2144848149881864e-05  1.1127596456453227e-05  1.0241434270399408e-05  9.5676601005203175e-06  9.4910131767884070e-06  1.1286014639092378e-05  1.4706242193562946e-05  1.4798554154109942e-05  1.3548510329120618e-05  1.1887190924006133e-05  1.0158471775618659e-05  8.4986339580458804e-06  6.9711840983503116e-06  5.6088872310407403e-06  4.4268535412050199e-06  3.4274586731109441e-06  2.6033311379853491e-06  1.9400297611602014e-06  1.4186271239164995e-06  1.0180341412815225e-06  7.1680947839669267e-07  4.9400857594083172e-07  3.2769395608609131e-07  1.8629592754234378e-07  0.0000000000000000e+00  6.0000000000000002e-05  5.6085121525745775e-05  5.4839996992824705e-05  5.4392468011909734e-05  5.4154602649009448e-05  5.3926247803949010e-05  5.3624208433112228e-05  5.3200657971542097e-05  5.2619614562014057e-05  5.1852220259964196e-05  5.0878129188458667e-05  4.9688488644292966e-05  4.8288556039766147e-05  4.6698906780602590e-05  4.4954670891937589e-05  4.3102472246281253e-05  4.1193420123502241e-05  3.9256063695768235e-05  3.7092890996411278e-05  3.2824014008491784e-05  2.7134389190153020e-05  2.2706288851218212e-05  1.9521884486044171e-05  1.7157127071671787e-05  1.5338127501234483e-05  1.3883911890318521e-05  1.2670412425704076e-05  1.1617172369382576e-05  1.0695380884854084e-05  9.9818640329087326e-06  9.8492238491129333e-06  1.1521211083469812e-05  1.4838065375837306e-05  1.4900172143413444e-05  1.3631609593580421e-05  1.1957765951758297e-05  1.0218686821531249e-05  8.5494922780150359e-06  7.0134663811223384e-06  5.6434126064636754e-06  4.4545175208585843e-06  3.4492021794241707e-06  2.6200933646961126e-06  1.9527041818226068e-06  1.4280279258604384e-06  1.0248751992499451e-06  7.2169543427379881e-07  4.9743644869284920e-07  3.3006171564516854e-07  1.8788583999455945e-07  0.0000000000000000e+00  6.0000000000000002e-05  5.6321149834174227e-05  5.5101253905661964e-05  5.4661189555789478e-05  5.4425417358104702e-05  5.4197289427309420e-05  5.3894609751304518e-05  5.3469761312153692e-05  5.2886713988896165e-05  5.2116482561118818e-05  5.1138586156963256e-05  4.9944067736831065e-05  4.8538137176942320e-05  4.6941396737908913e-05  4.5189086558848980e-05  4.3328031498760335e-05  4.1409715822839720e-05  3.9464063147920026e-05  3.7300076568176684e-05  3.3275878943189013e-05  2.7879280459020322e-05  2.3476772234326734e-05  2.0244556141345237e-05  1.7825649073960296e-05  1.5957998665491255e-05  1.4461522078015387e-05  1.3210496651696024e-05  1.2122187324253823e-05  1.1165005175195722e-05  1.0411190078720188e-05  1.0221005759742646e-05  1.1773132187977812e-05  1.4980863286354873e-05  1.5005761912514196e-05  1.3716253839969925e-05  1.2029077803627120e-05  1.0279354377041337e-05  8.6006828211777727e-06  7.0560129380464174e-06  5.6781527965066887e-06  4.4823554429907723e-06  3.4710846198650666e-06  2.6369646552205501e-06  1.9654626338587046e-06  1.4374922468389978e-06  1.0317633599333979e-06  7.2661565825667883e-07  5.0088872627553740e-07  3.3244574005681558e-07  1.8947699244925303e-07  0.0000000000000000e+00  6.0000000000000002e-05  5.6551271052238218e-05  5.5361690299245480e-05  5.4930586560427797e-05  5.4697378522453163e-05  5.4469625129361744e-05  5.4166349692751856e-05  5.3740213838533134e-05  5.3155160495719635e-05  5.2382083329934906e-05  5.1400367856418675e-05  5.0200952656308881e-05  4.8788999745124760e-05  4.7185138080205333e-05  4.5424718245688637e-05  4.3554768175126946e-05  4.1627161362747972e-05  3.9673300313136844e-05  3.7510793844704644e-05  3.3705714506882049e-05  2.8581395239983028e-05  2.4228646121923928e-05  2.0963683487255422e-05  1.8499048070855907e-05  1.6587758989906940e-05  1.5052116776191443e-05  1.3765459609609075e-05  1.2643125889323252e-05  1.1650875724173143e-05  1.0856266767887439e-05  1.0607110536088155e-05  1.2041468781874567e-05  1.5134572840721409e-05  1.5115295541072743e-05  1.3802433337879126e-05  1.2101124745800834e-05  1.0340475089207791e-05  8.6522067373303116e-06  7.0988248531560014e-06  5.7131086715343653e-06  4.5103679508003801e-06  3.4931064393426831e-06  2.6539452963238233e-06  1.9783052857920950e-06  1.4470201721323226e-06  1.0386986535443718e-06  7.3157014595869331e-07  5.0436538222917682e-07  3.3484599975992472e-07  1.9106975026657966e-07  0.0000000000000000e+00  6.0000000000000002e-05  5.6775663642279427e-05  5.5621351087269129e-05  5.5200677490099916e-05  5.4970496694944882e-05  5.4743263008312362e-05  5.4439435613661000e-05  5.4012022706001891e-05  5.3424961202479212e-05  5.2649029689801057e-05  5.1663481403029293e-05  5.0459150476693279e-05  4.9041150726177619e-05  4.7430137638222839e-05  4.5661572563310839e-05  4.3782688534773008e-05  4.1845761939317199e-05  3.9883776094095718e-05  3.7724773814442326e-05  3.4116805896039758e-05  2.9244883117377284e-05  2.4961593034086204e-05  2.1678663823767990e-05  1.9177014606759981e-05  1.7227405258941828e-05  1.5655932068674573e-05  1.4335711228842447e-05  1.3180519402770616e-05  1.2153604403230163e-05  1.1317758845243696e-05  1.1008272850969824e-05  1.2326057783453935e-05  1.5299101169522514e-05  1.5228731026611998e-05  1.3890133409059494e-05  1.2173903501407623e-05  1.0402049152677608e-05  8.7040650735645721e-06  7.1419032243866307e-06  5.7482811572236250e-06  4.5385557577438317e-06  3.5152681568239066e-06  2.6710356467703776e-06  1.9912323725681615e-06  1.4566118458068586e-06  1.0456811605423904e-06  7.3655893489610831e-07  5.0786642555915780e-07  3.3726250156188895e-07  1.9266455801344540e-07  0.0000000000000000e+00  6.0000000000000002e-05  5.6994559480097833e-05  5.5880290737245124e-05  5.5471483899350831e-05  5.5244783416280410e-05  5.5018211483326430e-05  5.4713874973965151e-05  5.4285195097538263e-05  5.3696123225146025e-05  5.2917328743091656e-05  5.1927933881318894e-05  5.0718668234259632e-05  4.9294597063116205e-05  4.7676402207863073e-05  4.5899656096382256e-05  4.4011798819401274e-05  4.2065522701301856e-05  4.0095490978231089e-05  3.7941770964204500e-05  3.4511980859178271e-05  2.9873825299106514e-05  2.5675724587893559e-05  2.2389103227073972e-05  1.9859358164602236e-05  1.7877016148213624e-05  1.6273269021954573e-05  1.4921717690300164e-05  1.3734950283836896e-05  1.2673850240179325e-05  1.1796371026144621e-05  1.1425224047497319e-05  1.2626848972002522e-05  1.5474327629363416e-05  1.5346012402656262e-05  1.3979334584768016e-05  1.2247409303245021e-05  1.0464076323252421e-05  8.7562587732346711e-06  7.1852491562734090e-06  5.7836712241566689e-06  4.5669196355987486e-06  3.5375703529043117e-06  2.6882361251752744e-06  2.0042441842529596e-06  1.4662674606335067e-06  1.0527110029561808e-06  7.4158209720989867e-07  5.1139189458868453e-07  3.3969528287699498e-07  1.9426192225394361e-07  0.0000000000000000e+00  6.0000000000000002e-05  5.7208232673959931e-05  5.6138572970424494e-05  5.5743030329699742e-05  5.5520251184650313e-05  5.5294479287688987e-05  5.4989675339027395e-05  5.4559738229487845e-05  5.3968653683997355e-05  5.3186987581561853e-05  5.2193732356115151e-05  5.0979512940537953e-05  4.9549345673202704e-05  4.7923938562509526e-05  4.6138975413950624e-05  4.4242105260866274e-05  4.2286448754426219e-05  4.0308444894663557e-05  3.8161562326017039e-05  3.4893681673192258e-05  3.0472119227791443e-05  2.6371536249806979e-05  2.3094822585244623e-05  2.0546017004020834e-05  1.8536760584996274e-05  1.6904500382987953e-05  1.5524006863359692e-05  1.4307056591140733e-05  1.3212323427167260e-05  1.2292851807955148e-05  1.1858703379152093e-05  1.2943881081077350e-05  1.5660105374299028e-05  1.5467069869437397e-05  1.4070012758364880e-05  1.2321635944968294e-05  1.0526555931490410e-05  8.8087886758454151e-06  7.2288637541578285e-06  5.8192798793163574e-06  4.5954604046572436e-06  3.5600136595869798e-06  2.7055472000147205e-06  2.0173410567441312e-06  1.4759872498043763e-06  1.0597883372571666e-06  7.4663973369103966e-07  5.1494185191076860e-07  3.4214440695725921e-07  1.9586239774338790e-07  0.0000000000000000e+00  6.0000000000000002e-05  5.7416990479859799e-05  5.6396270470601150e-05  5.6015344205436192e-05  5.5796913424927173e-05  5.5572075461358580e-05  5.5266844380499239e-05  5.4835659356124840e-05  5.4242559710463138e-05  5.3458013294934688e-05  5.2460883882456717e-05  5.1241691593011727e-05  4.9805403458763192e-05  4.8172753463192119e-05  4.6379537078176601e-05  4.4473614087742360e-05  4.2508545165735634e-05  4.0522637124034753e-05  3.8383946158643114e-05  3.5264027155233770e-05  3.1043426830266790e-05  2.7049857581901076e-05  2.3795861070120976e-05  2.1237067463573295e-05  1.9206906209277230e-05  1.7550077524276600e-05  1.6143173991788243e-05  1.4897536788725196e-05  1.3769789483056152e-05  1.2807997425862035e-05  1.2309467512750320e-05  1.3277264635079856e-05  1.5856262474770378e-05  1.5591819944410109e-05  1.4162139337083398e-05  1.2396575832040865e-05  1.0589486896659975e-05  8.8616555178008532e-06  7.2727481196685703e-06  5.8551081591564357e-06  4.6241789256730873e-06  3.5825987518762687e-06  2.7229693814097423e-06  2.0305233641330451e-06  1.4857714801247884e-06  1.0669133485047487e-06  7.5173196887387189e-07  5.1851638024040141e-07  3.4460995893220324e-07  1.9746657643844141e-07  0.0000000000000000e+00  6.0000000000000002e-05  5.7621165964831548e-05  5.6653464584349928e-05  5.6288455726774230e-05  5.6074784456835657e-05  5.5851009342824655e-05  5.5545389876421841e-05  5.5112965773248446e-05  5.4517848452746523e-05  5.3730412978000296e-05  5.2729395513792449e-05  5.1505211183970352e-05  5.0062777316133636e-05  4.8422853666990766e-05  4.6621347651560541e-05  4.4706331530854163e-05  4.2731816967984502e-05  4.0738066249969488e-05  3.8608740388765380e-05  3.5624865702565951e-05  3.1591159831572649e-05  2.7711803073439453e-05  2.4492477143544034e-05  2.1932732574418773e-05  1.9887827807637845e-05  1.8210537552924557e-05  1.6779887578844504e-05  1.5507154696739707e-05  1.4347073578289657e-05  1.3342655995396792e-05  1.2778298778137324e-05  1.3627169678713153e-05  1.6062602590353582e-05  1.5720165638615723e-05  1.4255681396140541e-05  1.2472220033464458e-05  1.0652867741286336e-05  8.9148599339553424e-06  7.3169033472798908e-06  5.8911571239757676e-06  4.6530760932527478e-06  3.6053263408626724e-06  2.7405032143651939e-06  2.0437915124212633e-06  1.4956204464146209e-06  1.0740862455336221e-06  7.5685894700415190e-07  5.2211557900340785e-07  3.4709204250789278e-07  1.9907507883427350e-07  0.0000000000000000e+00  6.0000000000000002e-05  5.7821112126842121e-05  5.6910245001774946e-05  5.6562397759068980e-05  5.6353879461697980e-05  5.6131290560207969e-05  5.5825319710646434e-05  5.5391664820967719e-05  5.4794527080431151e-05  5.4004193736490954e-05  5.2999274308777534e-05  5.1770078707846041e-05  5.0321474143071256e-05  4.8674245933995562e-05  4.6864413702937241e-05  4.4940263827962799e-05  4.2956269164073158e-05  4.0954730142886941e-05  3.8835780905024418e-05  3.5977820476497498e-05  3.2118486184312752e-05  2.8358726954114254e-05  2.5185147452333333e-05  2.2633389940873199e-05  2.0580015647438453e-05  1.8886510532223344e-05  1.7434895440337695e-05  1.6136744611989583e-05  1.4945065025946411e-05  1.3897731860739665e-05  1.3266012531123994e-05  1.3993817069907890e-05  1.6278905213672160e-05  1.5851996664040236e-05  1.4350601837725585e-05  1.2548558335072470e-05  1.0716696606471073e-05  8.9684024599131414e-06  7.3613305217833896e-06  5.9274278533723272e-06  4.6821528304343755e-06  3.6281971680317791e-06  2.7581492732022357e-06  2.0571459343469215e-06  1.5055344669001897e-06  1.0813072569941623e-06  7.6202082872280352e-07  5.2573956152764090e-07  3.4959077720301078e-07  2.0068854722137762e-07  0.0000000000000000e+00  6.0000000000000002e-05  5.8017197227292776e-05  5.7166709411550352e-05  5.6837205717145804e-05  5.6634214447460495e-05  5.6412929021565556e-05  5.6106641871640570e-05  5.5671763885802726e-05  5.5072602788251460e-05  5.4279362691950109e-05  5.3270527336918676e-05  5.2036301167308446e-05  5.0581500844908789e-05  4.892693703308545