<?xml version="1.0"?>
<VTKFile type="UnstructuredGrid"  version="0.1"  >
<UnstructuredGrid>
<Piece  NumberOfPoints="2601" NumberOfCells="5000">
<Points>
<DataArray  type="Float64"  NumberOfComponents="3"  format="ascii">-1 0 0  -0.96 0 0  -0.92 0 0  -0.88 0 0  -0.84 0 0  -0.8 0 0  -0.76 0 0  -0.72 0 0  -0.6799999999999999 0 0  -0.64 0 0  -0.6 0 0  -0.5600000000000001 0 0  -0.52 0 0  -0.48 0 0  -0.4399999999999999 0 0  -0.4 0 0  -0.36 0 0  -0.32 0 0  -0.28 0 0  -0.24 0 0  -0.2 0 0  -0.16 0 0  -0.12 0 0  -0.07999999999999996 0 0  -0.04000000000000004 0 0  0 0 0  0.04000000000000004 0 0  0.08000000000000007 0 0  0.1200000000000001 0 0  0.1599999999999999 0 0  0.2 0 0  0.24 0 0  0.28 0 0  0.3200000000000001 0 0  0.3600000000000001 0 0  0.3999999999999999 0 0  0.4399999999999999 0 0  0.48 0 0  0.52 0 0  0.5600000000000001 0 0  0.6000000000000001 0 0  0.6399999999999999 0 0  0.6799999999999999 0 0  0.72 0 0  0.76 0 0  0.8 0 0  0.8400000000000001 0 0  0.8799999999999999 0 0  0.9199999999999999 0 0  0.96 0 0  1 0 0  -1 0.016 0  -0.96 0.016 0  -0.92 0.016 0  -0.88 0.016 0  -0.84 0.016 0  -0.8 0.016 0  -0.76 0.016 0  -0.72 0.016 0  -0.6799999999999999 0.016 0  -0.64 0.016 0  -0.6 0.016 0  -0.5600000000000001 0.016 0  -0.52 0.016 0  -0.48 0.016 0  -0.4399999999999999 0.016 0  -0.4 0.016 0  -0.36 0.016 0  -0.32 0.016 0  -0.28 0.016 0  -0.24 0.016 0  -0.2 0.016 0  -0.16 0.016 0  -0.12 0.016 0  -0.07999999999999996 0.016 0  -0.04000000000000004 0.016 0  0 0.016 0  0.04000000000000004 0.016 0  0.08000000000000007 0.016 0  0.1200000000000001 0.016 0  0.1599999999999999 0.016 0  0.2 0.016 0  0.24 0.016 0  0.28 0.016 0  0.3200000000000001 0.016 0  0.3600000000000001 0.016 0  0.3999999999999999 0.016 0  0.4399999999999999 0.016 0  0.48 0.016 0  0.52 0.016 0  0.5600000000000001 0.016 0  0.6000000000000001 0.016 0  0.6399999999999999 0.016 0  0.6799999999999999 0.016 0  0.72 0.016 0  0.76 0.016 0  0.8 0.016 0  0.8400000000000001 0.016 0  0.8799999999999999 0.016 0  0.9199999999999999 0.016 0  0.96 0.016 0  1 0.016 0  -1 0.032 0  -0.96 0.032 0  -0.92 0.032 0  -0.88 0.032 0  -0.84 0.032 0  -0.8 0.032 0  -0.76 0.032 0  -0.72 0.032 0  -0.6799999999999999 0.032 0  -0.64 0.032 0  -0.6 0.032 0  -0.5600000000000001 0.032 0  -0.52 0.032 0  -0.48 0.032 0  -0.4399999999999999 0.032 0  -0.4 0.032 0  -0.36 0.032 0  -0.32 0.032 0  -0.28 0.032 0  -0.24 0.032 0  -0.2 0.032 0  -0.16 0.032 0  -0.12 0.032 0  -0.07999999999999996 0.032 0  -0.04000000000000004 0.032 0  0 0.032 0  0.04000000000000004 0.032 0  0.08000000000000007 0.032 0  0.1200000000000001 0.032 0  0.1599999999999999 0.032 0  0.2 0.032 0  0.24 0.032 0  0.28 0.032 0  0.3200000000000001 0.032 0  0.3600000000000001 0.032 0  0.3999999999999999 0.032 0  0.4399999999999999 0.032 0  0.48 0.032 0  0.52 0.032 0  0.5600000000000001 0.032 0  0.6000000000000001 0.032 0  0.6399999999999999 0.032 0  0.6799999999999999 0.032 0  0.72 0.032 0  0.76 0.032 0  0.8 0.032 0  0.8400000000000001 0.032 0  0.8799999999999999 0.032 0  0.9199999999999999 0.032 0  0.96 0.032 0  1 0.032 0  -1 0.04800000000000001 0  -0.96 0.04800000000000001 0  -0.92 0.04800000000000001 0  -0.88 0.04800000000000001 0  -0.84 0.04800000000000001 0  -0.8 0.04800000000000001 0  -0.76 0.04800000000000001 0  -0.72 0.04800000000000001 0  -0.6799999999999999 0.04800000000000001 0  -0.64 0.04800000000000001 0  -0.6 0.04800000000000001 0  -0.5600000000000001 0.04800000000000001 0  -0.52 0.04800000000000001 0  -0.48 0.04800000000000001 0  -0.4399999999999999 0.04800000000000001 0  -0.4 0.04800000000000001 0  -0.36 0.04800000000000001 0  -0.32 0.04800000000000001 0  -0.28 0.04800000000000001 0  -0.24 0.04800000000000001 0  -0.2 0.04800000000000001 0  -0.16 0.04800000000000001 0  -0.12 0.04800000000000001 0  -0.07999999999999996 0.04800000000000001 0  -0.04000000000000004 0.04800000000000001 0  0 0.04800000000000001 0  0.04000000000000004 0.04800000000000001 0  0.08000000000000007 0.04800000000000001 0  0.1200000000000001 0.04800000000000001 0  0.1599999999999999 0.04800000000000001 0  0.2 0.04800000000000001 0  0.24 0.04800000000000001 0  0.28 0.04800000000000001 0  0.3200000000000001 0.04800000000000001 0  0.3600000000000001 0.04800000000000001 0  0.3999999999999999 0.04800000000000001 0  0.4399999999999999 0.04800000000000001 0  0.48 0.04800000000000001 0  0.52 0.04800000000000001 0  0.5600000000000001 0.04800000000000001 0  0.6000000000000001 0.04800000000000001 0  0.6399999999999999 0.04800000000000001 0  0.6799999999999999 0.04800000000000001 0  0.72 0.04800000000000001 0  0.76 0.04800000000000001 0  0.8 0.04800000000000001 0  0.8400000000000001 0.04800000000000001 0  0.8799999999999999 0.04800000000000001 0  0.9199999999999999 0.04800000000000001 0  0.96 0.04800000000000001 0  1 0.04800000000000001 0  -1 0.064 0  -0.96 0.064 0  -0.92 0.064 0  -0.88 0.064 0  -0.84 0.064 0  -0.8 0.064 0  -0.76 0.064 0  -0.72 0.064 0  -0.6799999999999999 0.064 0  -0.64 0.064 0  -0.6 0.064 0  -0.5600000000000001 0.064 0  -0.52 0.064 0  -0.48 0.064 0  -0.4399999999999999 0.064 0  -0.4 0.064 0  -0.36 0.064 0  -0.32 0.064 0  -0.28 0.064 0  -0.24 0.064 0  -0.2 0.064 0  -0.16 0.064 0  -0.12 0.064 0  -0.07999999999999996 0.064 0  -0.04000000000000004 0.064 0  0 0.064 0  0.04000000000000004 0.064 0  0.08000000000000007 0.064 0  0.1200000000000001 0.064 0  0.1599999999999999 0.064 0  0.2 0.064 0  0.24 0.064 0  0.28 0.064 0  0.3200000000000001 0.064 0  0.3600000000000001 0.064 0  0.3999999999999999 0.064 0  0.4399999999999999 0.064 0  0.48 0.064 0  0.52 0.064 0  0.5600000000000001 0.064 0  0.6000000000000001 0.064 0  0.6399999999999999 0.064 0  0.6799999999999999 0.064 0  0.72 0.064 0  0.76 0.064 0  0.8 0.064 0  0.8400000000000001 0.064 0  0.8799999999999999 0.064 0  0.9199999999999999 0.064 0  0.96 0.064 0  1 0.064 0  -1 0.08 0  -0.96 0.08 0  -0.92 0.08 0  -0.88 0.08 0  -0.84 0.08 0  -0.8 0.08 0  -0.76 0.08 0  -0.72 0.08 0  -0.6799999999999999 0.08 0  -0.64 0.08 0  -0.6 0.08 0  -0.5600000000000001 0.08 0  -0.52 0.08 0  -0.48 0.08 0  -0.4399999999999999 0.08 0  -0.4 0.08 0  -0.36 0.08 0  -0.32 0.08 0  -0.28 0.08 0  -0.24 0.08 0  -0.2 0.08 0  -0.16 0.08 0  -0.12 0.08 0  -0.07999999999999996 0.08 0  -0.04000000000000004 0.08 0  0 0.08 0  0.04000000000000004 0.08 0  0.08000000000000007 0.08 0  0.1200000000000001 0.08 0  0.1599999999999999 0.08 0  0.2 0.08 0  0.24 0.08 0  0.28 0.08 0  0.3200000000000001 0.08 0  0.3600000000000001 0.08 0  0.3999999999999999 0.08 0  0.4399999999999999 0.08 0  0.48 0.08 0  0.52 0.08 0  0.5600000000000001 0.08 0  0.6000000000000001 0.08 0  0.6399999999999999 0.08 0  0.6799999999999999 0.08 0  0.72 0.08 0  0.76 0.08 0  0.8 0.08 0  0.8400000000000001 0.08 0  0.8799999999999999 0.08 0  0.9199999999999999 0.08 0  0.96 0.08 0  1 0.08 0  -1 0.09600000000000002 0  -0.96 0.09600000000000002 0  -0.92 0.09600000000000002 0  -0.88 0.09600000000000002 0  -0.84 0.09600000000000002 0  -0.8 0.09600000000000002 0  -0.76 0.09600000000000002 0  -0.72 0.09600000000000002 0  -0.6799999999999999 0.09600000000000002 0  -0.64 0.09600000000000002 0  -0.6 0.09600000000000002 0  -0.5600000000000001 0.09600000000000002 0  -0.52 0.09600000000000002 0  -0.48 0.09600000000000002 0  -0.4399999999999999 0.09600000000000002 0  -0.4 0.09600000000000002 0  -0.36 0.09600000000000002 0  -0.32 0.09600000000000002 0  -0.28 0.09600000000000002 0  -0.24 0.09600000000000002 0  -0.2 0.09600000000000002 0  -0.16 0.09600000000000002 0  -0.12 0.09600000000000002 0  -0.07999999999999996 0.09600000000000002 0  -0.04000000000000004 0.09600000000000002 0  0 0.09600000000000002 0  0.04000000000000004 0.09600000000000002 0  0.08000000000000007 0.09600000000000002 0  0.1200000000000001 0.09600000000000002 0  0.1599999999999999 0.09600000000000002 0  0.2 0.09600000000000002 0  0.24 0.09600000000000002 0  0.28 0.09600000000000002 0  0.3200000000000001 0.09600000000000002 0  0.3600000000000001 0.09600000000000002 0  0.3999999999999999 0.09600000000000002 0  0.4399999999999999 0.09600000000000002 0  0.48 0.09600000000000002 0  0.52 0.09600000000000002 0  0.5600000000000001 0.09600000000000002 0  0.6000000000000001 0.09600000000000002 0  0.6399999999999999 0.09600000000000002 0  0.6799999999999999 0.09600000000000002 0  0.72 0.09600000000000002 0  0.76 0.09600000000000002 0  0.8 0.09600000000000002 0  0.8400000000000001 0.09600000000000002 0  0.8799999999999999 0.09600000000000002 0  0.9199999999999999 0.09600000000000002 0  0.96 0.09600000000000002 0  1 0.09600000000000002 0  -1 0.112 0  -0.96 0.112 0  -0.92 0.112 0  -0.88 0.112 0  -0.84 0.112 0  -0.8 0.112 0  -0.76 0.112 0  -0.72 0.112 0  -0.6799999999999999 0.112 0  -0.64 0.112 0  -0.6 0.112 0  -0.5600000000000001 0.112 0  -0.52 0.112 0  -0.48 0.112 0  -0.4399999999999999 0.112 0  -0.4 0.112 0  -0.36 0.112 0  -0.32 0.112 0  -0.28 0.112 0  -0.24 0.112 0  -0.2 0.112 0  -0.16 0.112 0  -0.12 0.112 0  -0.07999999999999996 0.112 0  -0.04000000000000004 0.112 0  0 0.112 0  0.04000000000000004 0.112 0  0.08000000000000007 0.112 0  0.1200000000000001 0.112 0  0.1599999999999999 0.112 0  0.2 0.112 0  0.24 0.112 0  0.28 0.112 0  0.3200000000000001 0.112 0  0.3600000000000001 0.112 0  0.3999999999999999 0.112 0  0.4399999999999999 0.112 0  0.48 0.112 0  0.52 0.112 0  0.5600000000000001 0.112 0  0.6000000000000001 0.112 0  0.6399999999999999 0.112 0  0.6799999999999999 0.112 0  0.72 0.112 0  0.76 0.112 0  0.8 0.112 0  0.8400000000000001 0.112 0  0.8799999999999999 0.112 0  0.9199999999999999 0.112 0  0.96 0.112 0  1 0.112 0  -1 0.128 0  -0.96 0.128 0  -0.92 0.128 0  -0.88 0.128 0  -0.84 0.128 0  -0.8 0.128 0  -0.76 0.128 0  -0.72 0.128 0  -0.6799999999999999 0.128 0  -0.64 0.128 0  -0.6 0.128 0  -0.5600000000000001 0.128 0  -0.52 0.128 0  -0.48 0.128 0  -0.4399999999999999 0.128 0  -0.4 0.128 0  -0.36 0.128 0  -0.32 0.128 0  -0.28 0.128 0  -0.24 0.128 0  -0.2 0.128 0  -0.16 0.128 0  -0.12 0.128 0  -0.07999999999999996 0.128 0  -0.04000000000000004 0.128 0  0 0.128 0  0.04000000000000004 0.128 0  0.08000000000000007 0.128 0  0.1200000000000001 0.128 0  0.1599
[...]
<PointData  Scalars="f_100"> 
<DataArray  type="Float64"  Name="f_100"  format="ascii">6.0000000000000002e-05  5.4284361476917657e-05  5.3024644382116879e-05  5.2614101882143375e-05  5.2454078199561135e-05  5.2353454205401587e-05  5.2243319995591671e-05  5.2091128652038587e-05  5.1873968674787236e-05  5.1570686724960476e-05  5.1160318325956216e-05  5.0622831610955775e-05  4.9940812774784067e-05  4.9101482835188867e-05  4.8098601931803120e-05  4.6933595280901672e-05  4.5612905573377892e-05  4.4117843744717700e-05  4.2225015902555873e-05  3.4109810179732054e-05  2.4683268885406014e-05  2.0294773055257580e-05  1.7299325224175253e-05  1.5087514480995663e-05  1.3394692670145377e-05  1.2067679259759032e-05  1.1007578814171641e-05  1.0155358653351869e-05  9.5081982688269252e-06  9.2013794418094890e-06  9.7948690040966886e-06  1.3618658254916018e-05  1.9082757510285142e-05  1.9993103241993835e-05  1.9262601108913960e-05  1.7933771100133597e-05  1.6384127282413675e-05  1.4752129589305489e-05  1.3102535388953033e-05  1.1477945638909702e-05  9.9130278134478066e-06  8.4372486711410440e-06  7.0744494978775505e-06  5.8419490552234529e-06  4.7499777270639387e-06  3.8014614772371729e-06  2.9914056727166222e-06  2.3031616022578831e-06  1.6925187222937777e-06  1.0323339370554199e-06  0.0000000000000000e+00  6.0000000000000002e-05  5.4558451616500464e-05  5.3292013285484662e-05  5.2878443971571655e-05  5.2717387484701589e-05  5.2616305774952815e-05  5.2505803499232718e-05  5.2353136353652651e-05  5.2135275345268011e-05  5.1830964640291748e-05  5.1419134586569628e-05  5.0879644695964892e-05  5.0194975474641690e-05  4.9352255056077188e-05  4.8345174946090992e-05  4.7175128780005182e-05  4.5848590617602147e-05  4.4347227717036045e-05  4.2427216564420143e-05  3.5005120082497109e-05  2.5922312849632431e-05  2.1316038464830280e-05  1.8157260398523764e-05  1.5826280603485655e-05  1.4043364941284890e-05  1.2646538139575079e-05  1.1531155965667290e-05  1.0633996794449934e-05  9.9487505393502877e-06  9.6069082256388517e-06  1.0162501576633153e-05  1.3762092085360353e-05  1.9169139916417965e-05  2.0097441126972665e-05  1.9365929293782678e-05  1.8031430390719517e-05  1.6474440833185655e-05  1.4834405244339712e-05  1.3176485149167920e-05  1.1543520514446508e-05  9.9703707236517055e-06  8.4866736573564129e-06  7.1164202299674859e-06  5.8770506444976794e-06  4.7788829227748401e-06  3.8248947649205398e-06  3.0101099874621735e-06  2.3178746454830024e-06  1.7039715738389741e-06  1.0413178285886252e-06  0.0000000000000000e+00  6.0000000000000002e-05  5.4828496288238909e-05  5.3558561461655446e-05  5.3143429393176041e-05  5.2981801224416735e-05  5.2880406956775890e-05  5.2769581628107136e-05  5.2616451499058564e-05  5.2397891345260886e-05  5.2092549296748910e-05  5.1679252264493600e-05  5.1137751360352823e-05  5.0450421143055555e-05  4.9604296502937906e-05  4.8593000209867978e-05  4.7417896376498374e-05  4.6085510349760062e-05  4.4578036993939554e-05  4.2636459799514282e-05  3.5823306228814556e-05  2.7151268267143066e-05  2.2334936103212086e-05  1.9022359812381972e-05  1.6576732483462900e-05  1.4706008330739366e-05  1.3240535102096280e-05  1.2070391207700011e-05  1.1128355396603125e-05  1.0404594135636044e-05  1.0026336958707644e-05  1.0538268185705485e-05  1.3937147801310359e-05  1.9268533083580394e-05  2.0206527179896694e-05  1.9471141966185841e-05  1.8130032092682374e-05  1.6565374860132872e-05  1.4917173499181178e-05  1.3250859489371717e-05  1.1609470298094200e-05  1.0028044779260088e-05  8.5363885914662314e-06  7.1586417501621285e-06  5.9123661923292541e-06  4.8079680413395797e-06  3.8484771598848635e-06  3.0289361444426066e-06  2.3326857535935461e-06  1.7154975837055462e-06  1.0502938954179033e-06  0.0000000000000000e+00  6.0000000000000002e-05  5.5093699614025582e-05  5.3824248240024929e-05  5.3409051330880982e-05  5.3247321859666259e-05  5.3145763142869597e-05  5.3034660761923232e-05  5.2881080851451216e-05  5.2661823645191122e-05  5.2355447827078700e-05  5.1940678644190893e-05  5.1397159030070162e-05  5.0707157324245978e-05  4.9857614795826323e-05  4.8842085349289984e-05  4.7661905547544647e-05  4.6323671395031073e-05  4.4810262259935014e-05  4.2852300209954690e-05  3.6574932531182603e-05  2.8338885020599763e-05  2.3345854802692386e-05  1.9892194733584227e-05  1.7337618947432898e-05  1.5382027027751276e-05  1.3849484543421256e-05  1.2625371727779860e-05  1.1638713789078551e-05  1.0876164357160369e-05  1.0460300324837763e-05  1.0923968658516232e-05  1.4139950967060769e-05  1.9381143822851177e-05  2.0320433333717672e-05  1.9578269161115777e-05  1.8229588065093380e-05  1.6656935195223566e-05  1.5000438034381195e-05  1.3325661119818750e-05  1.1675797080321284e-05  1.0086051560416967e-05  8.5863945947788478e-06  7.2011147684810984e-06  5.9478960533646284e-06  4.8372331441460369e-06  3.8722084886015791e-06  3.0478837667634336e-06  2.3475942956713650e-06  1.7270956827571888e-06  1.0592589772197402e-06  0.0000000000000000e+00  6.0000000000000002e-05  5.5353503422827110e-05  5.4089049173533026e-05  5.3675307096315483e-05  5.3513953139253004e-05  5.3412380143055953e-05  5.3301047407308734e-05  5.3147031196050705e-05  5.2927079188429316e-05  5.2619667303040203e-05  5.2203420918491564e-05  5.1657875009842899e-05  5.0965191413893820e-05  5.0112217383768325e-05  4.9092437804922073e-05  4.7907163582871607e-05  4.6563080213686484e-05  4.5043898270161482e-05  4.3074289306552057e-05  3.7269357484812028e-05  2.9470080222136230e-05  2.4344775430565081e-05  2.0764691509959272e-05  1.8107866507635394e-05  1.6070942552883826e-05  1.4473288926240915e-05  1.3196254593988370e-05  1.2165405705117153e-05  1.1363929597355748e-05  1.0909420210242230e-05  1.1321118228942048e-05  1.4367738646160270e-05  1.9507123736189482e-05  2.0439213108419944e-05  1.9687333062239599e-05  1.8330107561736338e-05  1.6749126801815835e-05  1.5084202229801286e-05  1.3400892654254898e-05  1.1742502948104410e-05  1.0144392701859757e-05  8.6366928876237754e-06  7.2438401294117226e-06  5.9836407434478075e-06  4.8666784716735088e-06  3.8960887670380287e-06  3.0669526754740873e-06  2.3625998631169342e-06  1.7387651132858530e-06  1.0682114967904031e-06  0.0000000000000000e+00  6.0000000000000002e-05  5.5607543953140463e-05  5.4352953925326206e-05  5.3942197901907474e-05  5.3781700053027875e-05  5.3680264167187563e-05  5.3568748197185955e-05  5.3414309347177208e-05  5.3193664903604089e-05  5.2885214752622951e-05  5.2467486210881822e-05  5.1919906510588507e-05  5.1224530691362521e-05  5.0368111580943700e-05  4.9344064870284966e-05  4.8153677621656382e-05  4.6803743112878157e-05  4.5278942620010478e-05  4.3301987355325562e-05  3.7914757854266447e-05  3.0539170793123893e-05  2.5328489559758860e-05  2.1638019867830863e-05  1.8886527115068979e-05  1.6772360167749271e-05  1.5111915814589506e-05  1.3783251292231400e-05  1.2708810577977567e-05  1.1868391874382411e-05  1.1374325716898890e-05  1.1731024180383321e-05  1.4618554239728171e-05  1.9646570503963272e-05  2.0562901927089462e-05  1.9798348408551293e-05  1.8431597388136358e-05  1.6841953835372597e-05  1.5168469190690707e-05  1.3476556620292007e-05  1.1809589985073977e-05  1.0203069884566772e-05  8.6872847735101150e-06  7.2868187897162016e-06  6.0196009124744950e-06  4.8963044129177470e-06  3.9201181679803783e-06  3.0861428551876412e-06  2.3777022312229008e-06  1.7505053789206325e-06  1.0771511550273373e-06  0.0000000000000000e+00  6.0000000000000002e-05  5.5855615922848849e-05  5.4615964781036228e-05  5.4209728676647385e-05  5.4050568776606054e-05  5.3949421810429035e-05  5.3837769890262036e-05  5.3682922154106045e-05  5.3461587714779386e-05  5.3152097174266303e-05  5.2732881593898655e-05  5.2183260672029621e-05  5.1485182346263230e-05  5.0625304596504802e-05  4.9596973723619053e-05  4.8401454683005656e-05  4.7045666259093998e-05  4.5515394763275990e-05  4.3534971651719838e-05  3.8518216180685108e-05  3.1545819249084062e-05  2.6294370769841163e-05  2.2510559701818427e-05  1.9672758820496426e-05  1.7485955871115112e-05  1.5765388977120823e-05  1.4386622008435027e-05  1.3269350993305200e-05  1.2390089075163327e-05  1.1855665394697905e-05  1.2154843226335281e-05  1.4891028905304537e-05  1.9799530766691030e-05  2.0691517352035339e-05  1.9911322834557074e-05  1.8534062031377843e-05  1.6935419693572403e-05  1.5253241769165631e-05  1.3552655467919103e-05  1.1877060271591430e-05  1.0262084828837938e-05  8.7381716260489541e-06  7.3300518001372761e-06  6.0557773220350750e-06  4.9261114802271305e-06  3.9442969941557020e-06  3.1054544258167574e-06  2.3929013275777788e-06  1.7623162036149856e-06  1.0860786800070090e-06  0.0000000000000000e+00  6.0000000000000002e-05  5.6097642762709385e-05  5.4878095603678530e-05  5.4477907912144243e-05  5.4320566624599747e-05  5.4219860040768966e-05  5.4108119370518262e-05  5.3952876505886990e-05  5.3730854549861932e-05  5.3420321548605112e-05  5.2999614104315988e-05  5.2447944581352481e-05  5.1747153500362314e-05  5.0883803559156973e-05  4.9851171454067992e-05  4.8650501691165489e-05  4.7288855690603896e-05  4.5753255239396940e-05  4.3772841998098496e-05  3.9085835668155886e-05  3.2492616299677158e-05  2.7240344499342986e-05  2.3380898510526466e-05  2.0465823177110492e-05  1.8211474433860991e-05  1.6433787160425831e-05  1.5006675260893734e-05  1.3847493519475245e-05  1.2929598084700776e-05  1.2354115222091311e-05  1.2593625122960848e-05  1.5184224821554896e-05  1.9966003725610998e-05  2.0825059264224921e-05  2.0026257159703208e-05  1.8637503769290292e-05  1.7029527058274749e-05  1.5338522582092770e-05  1.3629191576546303e-05  1.1944915884798175e-05  1.0321439288570458e-05  8.7893548781606899e-06  7.3735402903191527e-06  6.0921708270024776e-06  4.9561002885927410e-06  3.9686256561241720e-06  3.1248876193372415e-06  2.4081972060804219e-06  1.7741974979731564e-06  1.0949956211134423e-06  0.0000000000000000e+00  6.0000000000000002e-05  5.6333652004741217e-05  5.5139371093626824e-05  5.4746747529667365e-05  5.4591702009972552e-05  5.4491586188088389e-05  5.4379803646609562e-05  5.4224179335281971e-05  5.4001472347541621e-05  5.3689894848174537e-05  5.3267690755686791e-05  5.2713965288608020e-05  5.2010451225654529e-05  5.1143615537427664e-05  5.0106665083271135e-05  4.8900825496396950e-05  4.7533317329479033e-05  4.5992525075136897e-05  4.4015224024939270e-05  3.9622861889116840e-05  3.3383650488781148e-05  2.8164903834213670e-05  2.4247840241787643e-05  2.1265091129176922e-05  1.8948733370910541e-05  1.7117247091765684e-05  1.5643770520417845e-05  1.4443751437290423e-05  1.3487538414960516e-05  1.2870384377251022e-05  1.3048346303178904e-05  1.5497522689459204e-05  2.0145944899384622e-05  2.0963510006954890e-05  2.0143145639967222e-05  1.8741922764316356e-05  1.7124277931324240e-05  1.5424314026189262e-05  1.3706167260901756e-05  1.2013158898666040e-05  1.0381135046531020e-05  8.8408360131712525e-06  7.4172854563800195e-06  6.1287823603695131e-06  4.9862715386042325e-06  3.9931046540946899e-06  3.1444427606840443e-06  2.4235900255631406e-06  1.7861493315111722e-06  1.1039041806666338e-06  0.0000000000000000e+00  6.0000000000000002e-05  5.6563754980326886e-05  5.5399826251404111e-05  5.5016262761154303e-05  5.4863984407601604e-05  5.4764607934248000e-05  5.4652829851106585e-05  5.4496837621949728e-05  5.4273448063014961e-05  5.3960824045431065e-05  5.3537118548707003e-05  5.2981329819430522e-05  5.2275082559279593e-05  5.1404747556387918e-05  5.0363461583179541e-05  4.9152432892289512e-05  4.7779056992954943e-05  4.6233205330544365e-05  4.4261770875182808e-05  4.0133800268430364e-05  3.4223672417922891e-05  2.9067114690352292e-05  2.5110417580563832e-05  2.2070053019983542e-05  1.9697630099072461e-05  1.7815968852921320e-05  1.6298322545318784e-05  1.5058688581710325e-05  1.4064576160429931e-05  1.3405219960022365e-05  1.3519936204875878e-05  1.5830540922197814e-05  2.0339269686825883e-05  2.1106834511787497e-05  2.0261976192233149e-05  1.8847317146346820e-05  1.7219673665792708e-05  1.5510618290995156e-05  1.3783584776040560e-05  1.2081791384071322e-05  1.0441173910459554e-05  8.8926165574698441e-06  7.4612885506711696e-06  6.1656129207625983e-06  5.0166260024225945e-06  4.0177345629672730e-06  3.1641202520436257e-06  2.4390800321997076e-06  1.7981719097182336e-06  1.1128070767487651e-06  0.0000000000000000e+00  6.0000000000000002e-05  5.6788130119971559e-05  5.5659505968257658e-05  5.5286472038875414e-05  5.5137424320522130e-05  5.5038933303766841e-05  5.4927205239529667e-05  5.4770858394985456e-05  5.4546788672697817e-05  5.4233116119384149e-05  5.3807904479784663e-05  5.3250045185547653e-05  5.2541054515840780e-05  5.1667206611454798e-05  5.0621567890765820e-05  4.9405330630149051e-05  4.8026080404041780e-05  4.6475296763193709e-05  4.4512163666902883e-05  4.0622523934006543e-05  3.5017616422684557e-05  2.9946596639533841e-05  2.5967904084989795e-05  2.2880330346757295e-05  2.0458150781435046e-05  1.8530222614441238e-05  1.6970806742230770e-05  1.5692923875537157e-05  1.4661428207069615e-05  1.3959411309215402e-05  1.4009298214528690e-05  1.6183077573286069e-05  2.0545856528492881e-05  2.1254980421851021e-05  2.0382730600172485e-05  1.8953683087968279e-05  1.7315714993945570e-05  1.5597437370248491e-05  1.3861446321674750e-05  1.2150815408908391e-05  1.0501557709867073e-05  8.9446980744575423e-06  7.5055508733390958e-06  6.2026635621596603e-06  5.0471645122354613e-06  4.0425160200289041e-06  3.1839205599373299e-06  2.4546675450211075e-06  1.8102655550027553e-06  1.1217074319690666e-06  0.0000000000000000e+00  6.0000000000000002e-05  5.7007009261643967e-05  5.5918464690352125e-05  5.5557396889726728e-05  5.5412033247642931e-05  5.5314570654754956e-05  5.5202937189137681e-05  5.5046248734905720e-05  5.4821501178098679e-05  5.4506778061081231e-05  5.4080055548130925e-05  5.3520118393472200e-05  5.2808374097585375e-05  5.1930999679792267e-05  5.0880990920180187e-05  4.9659525430984631e-05  4.8274393201375707e-05  4.6718799588493489e-05  4.4766111061830927e-05  4.1092369779768572e-05  3.5770336405328661e-05  3.0803482463658810e-05  2.6819824384924994e-05  2.3695687955452197e-05  2.1230380029808666e-05  1.9260356174367200e-05  1.7661765176840644e-05  1.6347136329788659e-05  1.5278866666093575e-05  1.4533794262836222e-05  1.4517326629634108e-05  1.6555068611157967e-05  2.0765549554697209e-05  2.1407878224922367e-05  2.0505384708781708e-05  1.9061014874884533e-05  1.7412402052963786e-05  1.5684773072089912e-05  1.3939754045992801e-05  1.2220233038254180e-05  1.0562288293413317e-05  8.9970821595630041e-06  7.5500737653740171e-06  6.2399353854229567e-06  5.0778879507549078e-06  4.0674497148310155e-06  3.2038442045978858e-06  2.4703529439822988e-06  1.8224306907835799e-06  1.1306086837789682e-06  0.0000000000000000e+00  6.0000000000000002e-05  5.7220666471018867e-05  5.6176766118279959e-05  5.5829061831090009e-05  5.5687823651976413e-05  5.5591528669834699e-05  5.5480033197445224e-05  5.5323015775154504e-05  5.5097592608993478e-05  5.4781816878146854e-05  5.4353578761633426e-05  5.3791556451697376e-05  5.3077048302826237e-05  5.2196133729737421e-05  5.1141737572807182e-05  4.9915023995526519e-05  4.8524000948364181e-05  4.6963713317252709e-05  4.5023348194970373e-05  4.1546222410648091e-05  3.6486469255653821e-05  3.1638364410579042e-05  2.7665961568134951e-05  2.4516045958393846e-05  2.2014510999478960e-05  2.0006802990313939e-05  1.8371813026524909e-05  1.7022070388626941e-05  1.5917723522741160e-05  1.5129255541312449e-05  1.5044920678757140e-05  1.6946557970100421e-05  2.0998160669005858e-05  2.1565441406415208e-05  2.0629908613423563e-05  1.9169304973713681e-05  1.7509734409245482e-05  1.5772627028440022e-05  1.4018510049104216e-05  1.2290046334591191e-05  1.0623367526768843e-05  9.0497704361401179e-06  7.5948586028835683e-06  6.2774295313259136e-06  5.1087972433952090e-06  4.0925363808602056e-06  3.2238917512294536e-06  2.4861366601221525e-06  1.8346678281289874e-06  1.1395145126758903e-06  0.0000000000000000e+00  6.0000000000000002e-05  5.7429408957742449e-05  5.6434482915533986e-05  5.6101494265934459e-05  5.5964808928634426e-05  5.5869816346844991e-05  5.5758500880450611e-05  5.5601166703194358e-05  5.5375070026019181e-05  5.5058239598540993e-05  5.4628481141727350e-05  5.4064366376660932e-05  5.3347084132916762e-05  5.2462615728603060e-05  5.1403814745597766e-05  5.0171833012631203e-05  4.8774909141712858e-05  4.7210036654721871e-05  4.5283635161729405e-05  4.1986586604524145e-05  3.7170373613394079e-05  3.2452235024507716e-05  2.8506361463592640e-05  2.5341490996163933e-05  2.2810855609760115e-05  2.0770090526348898e-05  1.9101645357096863e-05  1.7718541551189315e-05  1.6578895497055503e-05  1.5746737341781661e-05  1.5592996377001402e-05  1.7357676106028375e-05  2.1243471055151496e-05  2.1727566630534218e-05  2.0756266848133545e-05  1.9278544098905136e-05  1.7607711081941826e-05  1.5861000703823873e-05  1.4097716386217767e-05  1.2360257358093978e-05  1.0684797290882290e-05  9.1027645520945082e-06  7.6399067923759517e-06  6.3151471748093791e-06  5.1398933518318878e-06  4.1177767886823586e-06  3.2440638028141378e-06  2.5020191674400011e-06  1.8469775544605544e-06  1.1484287852401527e-06  0.0000000000000000e+00  6.0000000000000002e-05  5.7633569739556499e-05  5.6691696408481111e-05  5.6374724375400753e-05  5.6243003372010756e-05  5.6149442989170893e-05  5.6038347970564067e-05  5.5880708761236672e-05  5.5653940522782937e-05  5.5336053273673687e-05  5.4904769727441726e-05  5.4338555197697082e-05  5.3618488598036901e-05  5.2730452649146448e-05  5.1667229337985246e-05  5.0429959166366986e-05  4.9027123219439375e-05  4.7457767447988429e-05  4.5546755211711703e-05  4.2415649385082938e-05  3.7826112503796447e-05  3.3246428634679000e-05  2.9341333954343968e-05  2.6172286666909858e-05  2.3619854736273999e-05  2.1550848808772813e-05  1.9852044154496342e-05  1.8437442231362834e-05  1.7263349115399266e-05  1.6387242182984940e-05  1.6162496805542647e-05  1.7788624712594470e-05  2.1501232118781396e-05  2.1894133956415683e-05  2.0884418577043633e-05  1.9388721280145716e-05  1.7706330566243262e-05  1.5949895403861234e-05  1.4177375070640087e-05  1.2430868166981796e-05  1.0746579480586512e-05  9.1560661771121013e-06  7.6852197668743934e-06  6.3530895202489475e-06  5.1711772686957874e-06  4.1431717402966707e-06  3.2643609941875244e-06  2.5180009761789078e-06  1.8593605239309203e-06  1.1573555094545352e-06  0.0000000000000000e+00  6.0000000000000002e-05  5.7833501762842030e-05  5.6948496266903159e-05  5.6648785007549623e-05  5.6522422141711065e-05  5.6430418195580487e-05  5.6319582314230764e-05  5.6161649246656918e-05  5.5934211227567599e-05  5.5615264980988468e-05  5.5182451578767477e-05  5.4614129961156680e-05  5.3891268722003047e-05  5.2999651474943353e-05  5.1931988257639820e-05  5.0689409142021405e-05  4.9280648568485107e-05  4.7706902670928592e-05  4.5812512760647413e-05  4.2835332967400429e-05  3.8457460964271278e-05  3.4022567557672166e-05  3.0171451751481292e-05  2.7008883072542285e-05  2.4442088287200237e-05  2.2349819125613356e-05  2.0623885568688769e-05  1.9179747831619388e-05  1.7972125991136157e-05  1.7051838016293257e-05  1.6754401265737017e-05  1.8239665915955217e-05  2.1771165888786085e-05  2.2065007095015815e-05  2.1014317792009344e-05  1.9499823931315513e-05  1.7805590856818641e-05  1.6039312283595169e-05  1.4257488076663484e-05  1.2501880817938521e-05  1.0808716003488381e-05  9.2096770003847136e-06  7.7307989827156281e-06  6.3912577975530983e-06  5.2026500131990417e-06  4.1687220644824073e-06  3.2847839871546270e-06  2.5340826272605124e-06  1.8718174491584571e-06  1.1662988001762843e-06  0.0000000000000000e+00  6.0000000000000002e-05  5.8029573235637068e-05  5.7204980158878509e-05  5.6923711561307445e-05  5.6803081226904927e-05  5.6712751849483552e-05  5.6602211869248868e-05  5.6443995512133830e-05  5.6215889304699979e-05  5.5895881826108560e-05  5.5461533779468593e-05  5.4891097733845241e-05  5.4165431546277168e-05  5.327021920486438