<?xml version="1.0"?>
<VTKFile type="UnstructuredGrid"  version="0.1"  >
<UnstructuredGrid>
<Piece  NumberOfPoints="2601" NumberOfCells="5000">
<Points>
<DataArray  type="Float64"  NumberOfComponents="3"  format="ascii">-1 0 0  -0.96 0 0  -0.92 0 0  -0.88 0 0  -0.84 0 0  -0.8 0 0  -0.76 0 0  -0.72 0 0  -0.6799999999999999 0 0  -0.64 0 0  -0.6 0 0  -0.5600000000000001 0 0  -0.52 0 0  -0.48 0 0  -0.4399999999999999 0 0  -0.4 0 0  -0.36 0 0  -0.32 0 0  -0.28 0 0  -0.24 0 0  -0.2 0 0  -0.16 0 0  -0.12 0 0  -0.07999999999999996 0 0  -0.04000000000000004 0 0  0 0 0  0.04000000000000004 0 0  0.08000000000000007 0 0  0.1200000000000001 0 0  0.1599999999999999 0 0  0.2 0 0  0.24 0 0  0.28 0 0  0.3200000000000001 0 0  0.3600000000000001 0 0  0.3999999999999999 0 0  0.4399999999999999 0 0  0.48 0 0  0.52 0 0  0.5600000000000001 0 0  0.6000000000000001 0 0  0.6399999999999999 0 0  0.6799999999999999 0 0  0.72 0 0  0.76 0 0  0.8 0 0  0.8400000000000001 0 0  0.8799999999999999 0 0  0.9199999999999999 0 0  0.96 0 0  1 0 0  -1 0.016 0  -0.96 0.016 0  -0.92 0.016 0  -0.88 0.016 0  -0.84 0.016 0  -0.8 0.016 0  -0.76 0.016 0  -0.72 0.016 0  -0.6799999999999999 0.016 0  -0.64 0.016 0  -0.6 0.016 0  -0.5600000000000001 0.016 0  -0.52 0.016 0  -0.48 0.016 0  -0.4399999999999999 0.016 0  -0.4 0.016 0  -0.36 0.016 0  -0.32 0.016 0  -0.28 0.016 0  -0.24 0.016 0  -0.2 0.016 0  -0.16 0.016 0  -0.12 0.016 0  -0.07999999999999996 0.016 0  -0.04000000000000004 0.016 0  0 0.016 0  0.04000000000000004 0.016 0  0.08000000000000007 0.016 0  0.1200000000000001 0.016 0  0.1599999999999999 0.016 0  0.2 0.016 0  0.24 0.016 0  0.28 0.016 0  0.3200000000000001 0.016 0  0.3600000000000001 0.016 0  0.3999999999999999 0.016 0  0.4399999999999999 0.016 0  0.48 0.016 0  0.52 0.016 0  0.5600000000000001 0.016 0  0.6000000000000001 0.016 0  0.6399999999999999 0.016 0  0.6799999999999999 0.016 0  0.72 0.016 0  0.76 0.016 0  0.8 0.016 0  0.8400000000000001 0.016 0  0.8799999999999999 0.016 0  0.9199999999999999 0.016 0  0.96 0.016 0  1 0.016 0  -1 0.032 0  -0.96 0.032 0  -0.92 0.032 0  -0.88 0.032 0  -0.84 0.032 0  -0.8 0.032 0  -0.76 0.032 0  -0.72 0.032 0  -0.6799999999999999 0.032 0  -0.64 0.032 0  -0.6 0.032 0  -0.5600000000000001 0.032 0  -0.52 0.032 0  -0.48 0.032 0  -0.4399999999999999 0.032 0  -0.4 0.032 0  -0.36 0.032 0  -0.32 0.032 0  -0.28 0.032 0  -0.24 0.032 0  -0.2 0.032 0  -0.16 0.032 0  -0.12 0.032 0  -0.07999999999999996 0.032 0  -0.04000000000000004 0.032 0  0 0.032 0  0.04000000000000004 0.032 0  0.08000000000000007 0.032 0  0.1200000000000001 0.032 0  0.1599999999999999 0.032 0  0.2 0.032 0  0.24 0.032 0  0.28 0.032 0  0.3200000000000001 0.032 0  0.3600000000000001 0.032 0  0.3999999999999999 0.032 0  0.4399999999999999 0.032 0  0.48 0.032 0  0.52 0.032 0  0.5600000000000001 0.032 0  0.6000000000000001 0.032 0  0.6399999999999999 0.032 0  0.6799999999999999 0.032 0  0.72 0.032 0  0.76 0.032 0  0.8 0.032 0  0.8400000000000001 0.032 0  0.8799999999999999 0.032 0  0.9199999999999999 0.032 0  0.96 0.032 0  1 0.032 0  -1 0.04800000000000001 0  -0.96 0.04800000000000001 0  -0.92 0.04800000000000001 0  -0.88 0.04800000000000001 0  -0.84 0.04800000000000001 0  -0.8 0.04800000000000001 0  -0.76 0.04800000000000001 0  -0.72 0.04800000000000001 0  -0.6799999999999999 0.04800000000000001 0  -0.64 0.04800000000000001 0  -0.6 0.04800000000000001 0  -0.5600000000000001 0.04800000000000001 0  -0.52 0.04800000000000001 0  -0.48 0.04800000000000001 0  -0.4399999999999999 0.04800000000000001 0  -0.4 0.04800000000000001 0  -0.36 0.04800000000000001 0  -0.32 0.04800000000000001 0  -0.28 0.04800000000000001 0  -0.24 0.04800000000000001 0  -0.2 0.04800000000000001 0  -0.16 0.04800000000000001 0  -0.12 0.04800000000000001 0  -0.07999999999999996 0.04800000000000001 0  -0.04000000000000004 0.04800000000000001 0  0 0.04800000000000001 0  0.04000000000000004 0.04800000000000001 0  0.08000000000000007 0.04800000000000001 0  0.1200000000000001 0.04800000000000001 0  0.1599999999999999 0.04800000000000001 0  0.2 0.04800000000000001 0  0.24 0.04800000000000001 0  0.28 0.04800000000000001 0  0.3200000000000001 0.04800000000000001 0  0.3600000000000001 0.04800000000000001 0  0.3999999999999999 0.04800000000000001 0  0.4399999999999999 0.04800000000000001 0  0.48 0.04800000000000001 0  0.52 0.04800000000000001 0  0.5600000000000001 0.04800000000000001 0  0.6000000000000001 0.04800000000000001 0  0.6399999999999999 0.04800000000000001 0  0.6799999999999999 0.04800000000000001 0  0.72 0.04800000000000001 0  0.76 0.04800000000000001 0  0.8 0.04800000000000001 0  0.8400000000000001 0.04800000000000001 0  0.8799999999999999 0.04800000000000001 0  0.9199999999999999 0.04800000000000001 0  0.96 0.04800000000000001 0  1 0.04800000000000001 0  -1 0.064 0  -0.96 0.064 0  -0.92 0.064 0  -0.88 0.064 0  -0.84 0.064 0  -0.8 0.064 0  -0.76 0.064 0  -0.72 0.064 0  -0.6799999999999999 0.064 0  -0.64 0.064 0  -0.6 0.064 0  -0.5600000000000001 0.064 0  -0.52 0.064 0  -0.48 0.064 0  -0.4399999999999999 0.064 0  -0.4 0.064 0  -0.36 0.064 0  -0.32 0.064 0  -0.28 0.064 0  -0.24 0.064 0  -0.2 0.064 0  -0.16 0.064 0  -0.12 0.064 0  -0.07999999999999996 0.064 0  -0.04000000000000004 0.064 0  0 0.064 0  0.04000000000000004 0.064 0  0.08000000000000007 0.064 0  0.1200000000000001 0.064 0  0.1599999999999999 0.064 0  0.2 0.064 0  0.24 0.064 0  0.28 0.064 0  0.3200000000000001 0.064 0  0.3600000000000001 0.064 0  0.3999999999999999 0.064 0  0.4399999999999999 0.064 0  0.48 0.064 0  0.52 0.064 0  0.5600000000000001 0.064 0  0.6000000000000001 0.064 0  0.6399999999999999 0.064 0  0.6799999999999999 0.064 0  0.72 0.064 0  0.76 0.064 0  0.8 0.064 0  0.8400000000000001 0.064 0  0.8799999999999999 0.064 0  0.9199999999999999 0.064 0  0.96 0.064 0  1 0.064 0  -1 0.08 0  -0.96 0.08 0  -0.92 0.08 0  -0.88 0.08 0  -0.84 0.08 0  -0.8 0.08 0  -0.76 0.08 0  -0.72 0.08 0  -0.6799999999999999 0.08 0  -0.64 0.08 0  -0.6 0.08 0  -0.5600000000000001 0.08 0  -0.52 0.08 0  -0.48 0.08 0  -0.4399999999999999 0.08 0  -0.4 0.08 0  -0.36 0.08 0  -0.32 0.08 0  -0.28 0.08 0  -0.24 0.08 0  -0.2 0.08 0  -0.16 0.08 0  -0.12 0.08 0  -0.07999999999999996 0.08 0  -0.04000000000000004 0.08 0  0 0.08 0  0.04000000000000004 0.08 0  0.08000000000000007 0.08 0  0.1200000000000001 0.08 0  0.1599999999999999 0.08 0  0.2 0.08 0  0.24 0.08 0  0.28 0.08 0  0.3200000000000001 0.08 0  0.3600000000000001 0.08 0  0.3999999999999999 0.08 0  0.4399999999999999 0.08 0  0.48 0.08 0  0.52 0.08 0  0.5600000000000001 0.08 0  0.6000000000000001 0.08 0  0.6399999999999999 0.08 0  0.6799999999999999 0.08 0  0.72 0.08 0  0.76 0.08 0  0.8 0.08 0  0.8400000000000001 0.08 0  0.8799999999999999 0.08 0  0.9199999999999999 0.08 0  0.96 0.08 0  1 0.08 0  -1 0.09600000000000002 0  -0.96 0.09600000000000002 0  -0.92 0.09600000000000002 0  -0.88 0.09600000000000002 0  -0.84 0.09600000000000002 0  -0.8 0.09600000000000002 0  -0.76 0.09600000000000002 0  -0.72 0.09600000000000002 0  -0.6799999999999999 0.09600000000000002 0  -0.64 0.09600000000000002 0  -0.6 0.09600000000000002 0  -0.5600000000000001 0.09600000000000002 0  -0.52 0.09600000000000002 0  -0.48 0.09600000000000002 0  -0.4399999999999999 0.09600000000000002 0  -0.4 0.09600000000000002 0  -0.36 0.09600000000000002 0  -0.32 0.09600000000000002 0  -0.28 0.09600000000000002 0  -0.24 0.09600000000000002 0  -0.2 0.09600000000000002 0  -0.16 0.09600000000000002 0  -0.12 0.09600000000000002 0  -0.07999999999999996 0.09600000000000002 0  -0.04000000000000004 0.09600000000000002 0  0 0.09600000000000002 0  0.04000000000000004 0.09600000000000002 0  0.08000000000000007 0.09600000000000002 0  0.1200000000000001 0.09600000000000002 0  0.1599999999999999 0.09600000000000002 0  0.2 0.09600000000000002 0  0.24 0.09600000000000002 0  0.28 0.09600000000000002 0  0.3200000000000001 0.09600000000000002 0  0.3600000000000001 0.09600000000000002 0  0.3999999999999999 0.09600000000000002 0  0.4399999999999999 0.09600000000000002 0  0.48 0.09600000000000002 0  0.52 0.09600000000000002 0  0.5600000000000001 0.09600000000000002 0  0.6000000000000001 0.09600000000000002 0  0.6399999999999999 0.09600000000000002 0  0.6799999999999999 0.09600000000000002 0  0.72 0.09600000000000002 0  0.76 0.09600000000000002 0  0.8 0.09600000000000002 0  0.8400000000000001 0.09600000000000002 0  0.8799999999999999 0.09600000000000002 0  0.9199999999999999 0.09600000000000002 0  0.96 0.09600000000000002 0  1 0.09600000000000002 0  -1 0.112 0  -0.96 0.112 0  -0.92 0.112 0  -0.88 0.112 0  -0.84 0.112 0  -0.8 0.112 0  -0.76 0.112 0  -0.72 0.112 0  -0.6799999999999999 0.112 0  -0.64 0.112 0  -0.6 0.112 0  -0.5600000000000001 0.112 0  -0.52 0.112 0  -0.48 0.112 0  -0.4399999999999999 0.112 0  -0.4 0.112 0  -0.36 0.112 0  -0.32 0.112 0  -0.28 0.112 0  -0.24 0.112 0  -0.2 0.112 0  -0.16 0.112 0  -0.12 0.112 0  -0.07999999999999996 0.112 0  -0.04000000000000004 0.112 0  0 0.112 0  0.04000000000000004 0.112 0  0.08000000000000007 0.112 0  0.1200000000000001 0.112 0  0.1599999999999999 0.112 0  0.2 0.112 0  0.24 0.112 0  0.28 0.112 0  0.3200000000000001 0.112 0  0.3600000000000001 0.112 0  0.3999999999999999 0.112 0  0.4399999999999999 0.112 0  0.48 0.112 0  0.52 0.112 0  0.5600000000000001 0.112 0  0.6000000000000001 0.112 0  0.6399999999999999 0.112 0  0.6799999999999999 0.112 0  0.72 0.112 0  0.76 0.112 0  0.8 0.112 0  0.8400000000000001 0.112 0  0.8799999999999999 0.112 0  0.9199999999999999 0.112 0  0.96 0.112 0  1 0.112 0  -1 0.128 0  -0.96 0.128 0  -0.92 0.128 0  -0.88 0.128 0  -0.84 0.128 0  -0.8 0.128 0  -0.76 0.128 0  -0.72 0.128 0  -0.6799999999999999 0.128 0  -0.64 0.128 0  -0.6 0.128 0  -0.5600000000000001 0.128 0  -0.52 0.128 0  -0.48 0.128 0  -0.4399999999999999 0.128 0  -0.4 0.128 0  -0.36 0.128 0  -0.32 0.128 0  -0.28 0.128 0  -0.24 0.128 0  -0.2 0.128 0  -0.16 0.128 0  -0.12 0.128 0  -0.07999999999999996 0.128 0  -0.04000000000000004 0.128 0  0 0.128 0  0.04000000000000004 0.128 0  0.08000000000000007 0.128 0  0.1200000000000001 0.128 0  0.1599
[...]
<PointData  Scalars="f_100"> 
<DataArray  type="Float64"  Name="f_100"  format="ascii">6.0000000000000002e-05  5.4276732266779270e-05  5.3001742461405537e-05  5.2562890033375352e-05  5.2354505648162068e-05  5.2176718669405362e-05  5.1950568929160167e-05  5.1633099556334319e-05  5.1192063660381241e-05  5.0599851966573937e-05  4.9833839863722956e-05  4.8878792413971871e-05  4.7729550729756588e-05  4.6393042058825330e-05  4.4888982429728424e-05  4.3248679309811402e-05  4.1509552664706763e-05  3.9685019016974116e-05  3.7604253192789069e-05  3.0131161341676005e-05  2.1675007415323003e-05  1.7773188552603236e-05  1.5150869794796960e-05  1.3241189520353970e-05  1.1789741547218160e-05  1.0645770188188857e-05  9.7108033214399150e-06  8.9251513233007901e-06  8.2806668507426251e-06  7.8888637732836152e-06  8.2233091603137697e-06  1.1260857575752089e-05  1.5598270963333678e-05  1.5948305536445093e-05  1.4871190909246609e-05  1.3311497385833943e-05  1.1626832417341584e-05  9.9590998248550208e-06  8.3773354174295976e-06  6.9220194577441359e-06  5.6179624959819757e-06  4.4781789460449718e-06  3.5056885594653758e-06  2.6951977804300865e-06  2.0350176868122444e-06  1.5090644597347643e-06  1.0985610156436780e-06  7.8259872353657807e-07  5.3496968649761725e-07  3.0885968696476645e-07  0.0000000000000000e+00  6.0000000000000002e-05  5.4550837377205558e-05  5.3269101771316107e-05  5.2827163287883622e-05  5.2617626542305628e-05  5.2439166232504857e-05  5.2212290954218374e-05  5.1893792705792513e-05  5.1451250299261839e-05  5.0856899842537847e-05  5.0087974059854927e-05  4.9129117257106575e-05  4.7975087487449604e-05  4.6632782289687602e-05  4.5121952923012854e-05  4.3474013041326256e-05  4.1726570445795303e-05  3.9893524949042039e-05  3.7785961391972879e-05  3.0926247182788095e-05  2.2766176781763248e-05  1.8668287942888193e-05  1.5901343235558081e-05  1.3887941832551166e-05  1.2359225862940980e-05  1.1155798861220533e-05  1.0173447232343879e-05  9.3483168540168274e-06  8.6689116478628273e-06  8.2433210026770242e-06  8.5399476141714330e-06  1.1381616906519785e-05  1.5670722491808101e-05  1.6034098318447167e-05  1.4953776263260501e-05  1.3386850840403106e-05  1.1693704325973886e-05  1.0017246269101575e-05  8.4269745550809663e-06  6.9636412294871821e-06  5.6522380770280620e-06  4.5058963627297643e-06  3.5276962425522238e-06  2.7123542341391542e-06  2.0481493811275185e-06  1.5189340190544458e-06  1.1058467983466228e-06  7.8788651012139749e-07  5.3875897229549376e-07  3.1160059086648710e-07  0.0000000000000000e+00  6.0000000000000002e-05  5.4820896600780687e-05  5.3535640097892796e-05  5.3092079507322227e-05  5.2881851090583403e-05  5.2702861773482779e-05  5.2475304581647672e-05  5.2155788132451687e-05  5.1711737975622275e-05  5.1115241833885329e-05  5.0343391311752216e-05  4.9380710057527659e-05  4.8221872793839973e-05  4.6873747119545643e-05  4.5356119683027565e-05  4.3700512544715781e-05  4.1944739340226706e-05  4.0103333873724680e-05  3.7973943719172758e-05  3.1652389558350687e-05  2.3848715319842882e-05  1.9561431413731891e-05  1.6658175338142469e-05  1.4544990258281194e-05  1.2941016622715622e-05  1.1679187560431641e-05  1.0649942949742407e-05  9.7854134528477119e-06  9.0707196756908025e-06  8.6101411224561643e-06  8.8641104150904688e-06  1.1529954907840022e-05  1.5754459978649244e-05  1.6123993062101858e-05  1.5037966706480748e-05  1.3462983453594740e-05  1.1761067361575537e-05  1.0075764162322989e-05  8.4769183567284062e-06  7.0055185661415450e-06  5.6867275035879421e-06  4.5337905718973487e-06  3.5498478117780741e-06  2.7296258086589668e-06  2.0613715723512485e-06  1.5288734701463766e-06  1.1131856389610933e-06  7.9321389034702873e-07  5.4257614030783110e-07  3.1434350126424928e-07  0.0000000000000000e+00  6.0000000000000002e-05  5.5086114013350289e-05  5.3801316800926545e-05  5.3357631939623844e-05  5.3147181844308110e-05  5.2967810856014368e-05  5.2739616437384120e-05  5.2419092927326994e-05  5.1973534065306219e-05  5.1374885537055718e-05  5.0600099388733324e-05  4.9633578692897249e-05  4.8469914544580575e-05  4.7115944347759440e-05  4.5591490278010320e-05  4.3928184962460567e-05  4.2164065415436338e-05  4.0314437427927309e-05  3.8167801607573548e-05  3.2319095038259577e-05  2.4894858065929219e-05  2.0447632915564772e-05  1.7419215092649181e-05  1.5211231333791308e-05  1.3534593085418692e-05  1.2215781132651210e-05  1.1140379312812330e-05  1.0236701756107805e-05  9.4864891096008046e-06  8.9898930776528713e-06  9.1973448140972870e-06  1.1702553097212913e-05  1.5849662603585135e-05  1.6218053097285513e-05  1.5123788342675618e-05  1.3539905191712991e-05  1.1828925965773029e-05  1.0134655836483269e-05  8.5271681358464049e-06  7.0476521460768099e-06  5.7214309961453680e-06  4.5618614557641016e-06  3.5721429121724833e-06  2.7470120008057113e-06  2.0746836839300718e-06  1.5388822201880168e-06  1.1205769619207920e-06  7.9858030020131726e-07  5.4642056859127774e-07  3.1708720755951478e-07  0.0000000000000000e+00  6.0000000000000002e-05  5.5345931413610735e-05  5.4066107459297198e-05  5.3623817949595477e-05  5.3413622643555325e-05  5.3234019431593960e-05  5.3005233230811568e-05  5.2683714144860832e-05  5.2236645843409724e-05  5.1635838401149581e-05  5.0858105874737220e-05  4.9887730826528823e-05  4.8719220404381221e-05  4.7359381541886686e-05  4.5828072061488188e-05  4.4157037259270048e-05  4.2384554624271090e-05  4.0526830948103184e-05  3.8367134449894503e-05  3.2934767955817312e-05  2.5891195983361392e-05  2.1323331453870676e-05  1.8182633880265568e-05  1.5885723027956880e-05  1.4139539535507681e-05  1.2765501167275899e-05  1.1644904011789611e-05  1.0702486402854707e-05  9.9166428696020393e-06  9.3831304338259949e-06  9.5409496650945438e-06  1.1897040720008181e-05  1.5956462721379091e-05  1.6316325626073493e-05  1.5211260460243565e-05  1.3617623804493017e-05  1.1897283906365236e-05  1.0193923471957353e-05  8.5777252518713397e-06  7.0900427832655353e-06  5.7563489581884142e-06  4.5901091045004079e-06  3.5945814058633918e-06  2.7645125212472044e-06  2.0880853404901264e-06  1.5489598586677161e-06  1.1280203530306809e-06  8.0398532154115660e-07  5.5029178892733518e-07  3.1983101139913748e-07  0.0000000000000000e+00  6.0000000000000002e-05  5.5599985022725530e-05  5.4330001758499877e-05  5.3890638793962788e-05  5.3681178553732065e-05  5.3501493827013286e-05  5.3272161761774271e-05  5.2949658820302956e-05  5.2501080509571887e-05  5.1898107760379271e-05  5.1117418207182296e-05  5.0143173951304164e-05  4.8969797853880706e-05  4.7604066084731580e-05  4.6065872216138534e-05  4.4387076257661542e-05  4.2606212810825648e-05  4.0740512363351452e-05  3.8571550035958641e-05  3.3506739583196572e-05  2.6832667560574585e-05  2.2185690606952720e-05  1.8946821994586582e-05  1.6567636046673154e-05  1.4755514661088854e-05  1.3328325996936833e-05  1.2163711152448131e-05  1.1183110188899766e-05  1.0361631170036219e-05  9.7904108741924566e-06  9.8960444008231940e-06  1.2111735832405634e-05  1.6074946806063570e-05  1.6418842030194303e-05  1.5300395891045623e-05  1.3696144956770695e-05  1.1966144317499185e-05  1.0253569101495052e-05  8.6285910963952778e-06  7.1326914026939701e-06  5.7914819445612882e-06  4.6185337803472293e-06  3.6171633344223468e-06  2.7821272571973050e-06  2.1015763325611602e-06  1.5591061252741049e-06  1.1355155309391480e-06  8.0942865633623461e-07  5.5418946076709423e-07  3.2257462825108784e-07  0.0000000000000000e+00  6.0000000000000002e-05  5.5848069551818513e-05  5.4593002003656041e-05  5.4158099438742443e-05  5.3949855813067387e-05  5.3770240733989955e-05  5.3540408926364530e-05  5.3216933984060285e-05  5.2766845208845935e-05  5.2161700860834589e-05  5.1378043709001704e-05  5.0399915425860444e-05  4.9221654228249390e-05  4.7850005213072403e-05  4.6304897789879477e-05  4.4618308667296941e-05  4.2829045717622551e-05  4.0955481312014058e-05  3.8780671817958271e-05  3.4041351807128183e-05  2.7718958928622327e-05  2.3032391517149131e-05  1.9710356745244080e-05  1.7256235353582538e-05  1.5382239545430759e-05  1.3904283006662265e-05  1.2697036896837659e-05  1.1678952852457595e-05  1.0821934669099210e-05  1.0212308069833937e-05  1.0263619997512736e-05  1.2345459606870065e-05  1.6205157778318105e-05  1.6525618103648978e-05  1.5391201310167851e-05  1.3775472337228737e-05  1.2035509732779227e-05  1.0313594613447065e-05  8.6797670817521142e-06  7.1755990200821408e-06  5.8268306353926075e-06  4.6471358880795818e-06  3.6398888878904702e-06  2.7998562417467147e-06  2.1151565875910671e-06  1.5693208835244144e-06  1.1430623237197187e-06  8.1491010552978337e-07  5.5811334989465381e-07  3.2531810649510025e-07  0.0000000000000000e+00  6.0000000000000002e-05  5.6090108433498759e-05  5.4855122075029822e-05  5.4426208406625179e-05  5.4219661788133893e-05  5.4040267200264902e-05  5.3809981721604826e-05  5.3485546673518811e-05  5.3033947048919116e-05  5.2426624882562777e-05  5.1639989615058965e-05  5.0657962504414650e-05  4.9474796748987852e-05  4.8097206049546502e-05  4.6545155725574853e-05  4.4850741109192799e-05  4.3053058993412080e-05  4.1171738446193634e-05  3.8994143696222408e-05  3.4544063546428671e-05  2.8552357092264240e-05  2.3861603868443027e-05  2.0471998789144579e-05  1.7950877074763700e-05  1.6019495617047203e-05  1.4493447628771619e-05  1.3245159517617409e-05  1.2190432385529643e-05  1.1298067890099937e-05  1.0649419368976854e-05  1.0644577302080557e-05  1.2597403013894854e-05  1.6347097966830508e-05  1.6636654231255319e-05  1.5483677490518338e-05  1.3855607749810234e-05  1.2105382113070074e-05  1.0374001754552334e-05  8.7312546316326938e-06  7.2187667251743716e-06  5.8623958146229125e-06  4.6759159506960426e-06  3.6627583793003471e-06  2.8176996286496426e-06  2.1288261461289739e-06  1.5796040991057983e-06  1.1506606496467534e-06  8.2042955168708608e-07  5.6206331092855170e-07  3.2806176107505143e-07  0.0000000000000000e+00  6.0000000000000002e-05  5.6326129208621920e-05  5.5116386688521229e-05  5.4694977645111590e-05  5.4490604935089843e-05  5.4311580621628124e-05  5.4080887249129483e-05  5.3755503942754154e-05  5.3302393114315547e-05  5.2692886957786368e-05  5.1903263093935297e-05  5.0917322361350532e-05  4.9729232550127847e-05  4.8345675628908931e-05  4.6786652885492118e-05  4.5084380135722275e-05  4.3278258201117877e-05  4.1389284892964545e-05  3.9211632896488020e-05  3.5019562083347936e-05  2.9336479510787009e-05  2.4671998675783771e-05  2.1230699142870945e-05  1.8651013209352437e-05  1.6667127942642004e-05  1.5095946010556537e-05  1.3808401908171874e-05  1.2718007762582131e-05  1.1790582798695766e-05  1.1102371289778192e-05  1.1039756345819399e-05  1.2867031013543739e-05  1.6500732220449127e-05  1.6751935531792276e-05  1.5577819523688518e-05  1.3936551192311403e-05  1.2175762870406676e-05  1.0434792132519762e-05  8.7830551734241134e-06  7.2621956679893143e-06  5.8981783523255994e-06  4.7048745894112520e-06  3.6857722237189557e-06  2.8356576715955532e-06  2.1425851422548529e-06  1.5899558220868946e-06  1.1583105014134216e-06  8.2598694475119528e-07  5.6603927294542536e-07  3.3080611925250210e-07  0.0000000000000000e+00  6.0000000000000002e-05  5.6556243223046553e-05  5.5376830858890497e-05  5.4964422408421823e-05  5.4762694764798625e-05  5.4584188734445266e-05  5.4353132717958225e-05  5.4026812870476050e-05  5.3572190478105105e-05  5.2960494185937311e-05  5.2167871265905739e-05  5.1178002111494956e-05  4.9984968699828537e-05  4.8595420919665142e-05  4.7029396071449509e-05  4.5319232247164891e-05  4.3504648825637927e-05  4.1608121845129559e-05  3.9432831401066893e-05  3.5471869812888368e-05  3.0075531648677721e-05  2.5462752274999500e-05  2.1985609555761637e-05  1.9356200141344865e-05  1.7325051379783875e-05  1.5711959733322300e-05  1.4387135499477918e-05  1.3262182503041955e-05  1.2300072508663999e-05  1.1571823941846901e-05  1.1449959147174956e-05  1.3154013647978821e-05  1.6665990869111697e-05  1.6871431981872424e-05  1.5673617016468545e-05  1.4018300925787354e-05  1.2246652889142771e-05  1.0495967218584830e-05  8.8351701320177515e-06  7.3058870475242091e-06  5.9341791901568696e-06  4.7340125071912309e-06  3.7089309210093801e-06  2.8537307071676431e-06  2.1564337874977971e-06  1.6003761723073054e-06  1.1660119331747343e-06  8.3158229034730345e-07  5.7004122764415034e-07  3.3355187641152587e-07  0.0000000000000000e+00  6.0000000000000002e-05  5.6780628926284378e-05  5.5636499490692203e-05  5.5234561147903114e-05  5.5035941810357842e-05  5.4858099608348814e-05  5.4626725446443147e-05  5.4299480566492724e-05  5.3843346211550286e-05  5.3229453646067185e-05  5.2433821217776979e-05  5.1440008826846903e-05  5.0242012218184991e-05  4.8846448841900915e-05  4.7273392041421990e-05  4.5555303905425802e-05  4.3732236281342779e-05  4.1828250258137943e-05  3.9657456302926762e-05  3.5904441826150367e-05  3.0773881979984243e-05  2.6233529054306818e-05  2.2736092922797339e-05  2.0066108780968642e-05  1.7993258239608481e-05  1.6341731704149803e-05  1.4981785019047582e-05  1.3823508759883382e-05  1.2827175121139467e-05  1.2058475002248103e-05  1.1875967769151611e-05  1.3458176457922685e-05  1.6842772353627139e-05  1.6995098534099173e-05  1.5771054270723066e-05  1.4100853537689788e-05  1.2318052545242417e-05  1.0557528350179783e-05  8.8876009248715306e-06  7.3498421024955464e-06  5.9703993293867612e-06  4.7633304752053956e-06  3.7322350416510774e-06  2.8719191408314568e-06  2.1703723576200438e-06  1.6108653273762065e-06  1.1737650499087972e-06  8.3721564017730040e-07  5.7406921957760720e-07  3.3629986020728456e-07  0.0000000000000000e+00  6.0000000000000002e-05  5.6999518178930368e-05  5.5895447042764480e-05  5.5505415406934231e-05  5.5310357595874594e-05  5.5133321638831287e-05  5.4901672863460690e-05  5.4573514176932999e-05  5.4115867392047415e-05  5.3499772407094554e-05  5.2701120015141457e-05  5.1703349550387627e-05  5.0500370091921831e-05  4.9098766281986774e-05  4.7518647523239043e-05  4.5792601545436406e-05  4.3961025919205308e-05  4.2049670633201461e-05  3.9885249373400193e-05  3.6320252575608802e-05  3.1435827218087913e-05  2.6984445512918845e-05  2.3481732084136193e-05  2.0780535141974402e-05  1.8671826716020556e-05  1.6985572738861767e-05  1.5592833785394341e-05  1.4402591771075366e-05  1.3372577710756862e-05  1.2563063585322564e-05  1.2318558900238239e-05  1.3779464805828385e-05  1.7030945425492469e-05  1.7122875240713614e-05  1.5870110452942337e-05  1.4184204001072682e-05  1.2389961724434195e-05  1.0619476733822809e-05  8.9403489581463289e-06  7.3940621037703861e-06  6.0068398210592679e-06  4.7928293216795127e-06  3.7556852150752772e-06  2.8902234354135290e-06  2.1844011817545994e-06  1.6214235128127093e-06  1.1815699986800341e-06  8.4288708412814387e-07  5.7812333806767262e-07  3.3905100163609293e-07  0.0000000000000000e+00  6.0000000000000002e-05  5.7213185072160121e-05  5.6153737227980800e-05  5.5777009717288787e-05  5.5585954605569787e-05  5.5409863539537007e-05  5.5177982508912143e-05  5.4848920888423033e-05  5.4389761109656566e-05  5.3771457536269875e-05  5.2969774712504855e-05  5.1968031307489852e-05  5.0760049286525966e-05  4.9352380104714147e-05  4.7765169225894813e-05  4.6031131584656522e-05  4.4191023033557698e-05  4.2272382869715855e-05  4.0115976069743664e-05  3.6721871446096982e-05  3.2065470899114609e-05  2.7716022631580075e-05  2.4222336198437785e-05  2.1499410701544617e-05  1.9360929664864094e-05  1.7643868567625934e-05  1.6220829369066880e-05  1.5000094586153450e-05  1.3937020471443777e-05  1.3086374184288834e-05  1.2778515885454103e-05  1.4117918228370957e-05  1.7230350870770290e-05  1.7254687391919651e-05  1.5970759758629847e-05  1.4268345731726510e-05  1.2462379839798007e-05  1.0681813448304992e-05  8.9934156237650780e-06  7.4385483482021839e-06  6.0435017579087276e-06  4.8225099227246013e-06  3.7792821200681246e-06  2.9086441016257089e-06  2.1985206334753617e-06  1.6320509939438698e-06  1.1894269614624642e-06  8.4859674378500732e-07  5.8220371049080077e-07  3.4180631184236302e-07  0.0000000000000000e+00  6.0000000000000002e-05  5.7421936843389010e-05  5.6411442721917827e-05  5.6049371494650754e-05  5.5862746252495496e-05  5.5687734334098165e-05  5.5455662033589072e-05  5.5125707931382107e-05  5.4665034472463640e-05  5.4044516106172054e-05  5.3239792361663908e-05  5.2234061115352770e-05  5.1021056756274720e-05  4.9607297163322305e-05  4.8012963848899010e-05  4.6270900431024138e-05  4.4422232868511471e-05  4.2496386172821342e-05  4.0349424156386869e-05  3.7111527880973767e-05  3.2666668916098336e-05  2.8429133487218727e-05  2.4957944411808223e-05  2.2222812198236768e-05  2.0060843495591331e-05  1.8317087109508250e-05  1.6866389524736458e-05  1.5616743019479410e-05  1.4521301031096623e-05  1.3629240773834021e-05  1.3256638893645438e-05  1.4473652039831679e-05  1.7440802745556797e-05  1.7390445676434401e-05  1.6072971575727705e-05  1.4353270644712534e-05  1.2535305849232382e-05  1.0744539448232501e-05  9.0468022972669006e-06  7.4833021536341199e-06  6.0803862677246372e-06  4.8523731947915509e-06  3.8030264768731310e-06  2.9271816902694488e-06  2.2127311234533671e-06  1.6427480692445714e-06  1.1973361492420800e-06  8.5434476709538575e-07  5.8631049667978022e-07  3.4456686367567069e-07  0.0000000000000000e+00  6.0000000000000002e-05  5.7626106539906258e-05  5.6668644862984504e-05  5.6322530931538135e-05  5.6140746846313134e-05  5.5966943347399151e-05  5.5734719198454194e-05  5.5403882582573646e-05  5.4941694610975388e-05  5.4318955200495317e-05  5.3511180018645129e-05  5.2501445990814759e-05  5.1283399452535384e-05  4.9863524307793660e-05  4.8262038090020849e-05  4.6511914489637020e-05  4.4654660624098404e-05  4.2721679004331629e-05  4.0585402071643156e-05  3.7491167097931538e-05  3.3243014049371130e-05  2.9124951477681939e-05  2.5688826927446076e-05  2.2950970706605028e-05  2.0771957038668666e-05  1.9005785925010898e-05  1.7530208338167613e-05  1.6253330802121906e-05  1.5126278940590212e-05  1.4192551115734241e-05  1.3753753735687302e-05  1.4846844193257120e-05  1.7662089130980121e-05  1.7530046370534968e-05  1.6176710650477926e-05  1.4438969211450214e-05  1.2608738273150698e-05  1.0807655567964336e-05  9.1005103363484598e-06  7.5283248548734597e-06  6.1174945079107933e-06  4.8824200884625902e-06  3.8269190406893707e-06  2.9458367858189527e-06  2.2270330934141204e-06  1.6535150648595546e-06  1.2052977971673793e-06  8.6013132397560190e-07  5.9044388423442838e-07  3.4733377717576189e-07  0.0000000000000000e+00  6.0000000000000002e-05  5.7826047139025700e-05  5.6925433333084897e-05  5.6596520886330418e-05  5.6419971559715285e-05  5.6247500196186654e-05  5.6015161873383382e-05  5.5683452167026093e-05  5.5219748681714248e-05  5.4594781918840791e-05  5.3783944749461412e-05  5.2770192956833919e-05  5.1547084330646239e-05  5.0121068391729295e-05  4.8512398651716671e-05  4.6754180168399913e-05  4.4888311462200968e-05  4.2948259067348597e-05  4.0823737138191184e-05  3.7862497561513852e-05  3.3797842715368172e-05  2.9804902735659118e-05  2.6415483850323760e-05  2.3684279941156809e-05  2.1494780311116687e-05  1.9710619790655995e-05  1.8213062553164098e-05  1.6910724914803230e-05  1.5752880339380323e-05  1.4777251285806414e-05  1.4270719724712148e-05  1.5237725968315914e-05  1.7893972427342744e-05  1.7673371560927366e-05  1.6281937258442026e-05  1.4525430518249069e-05  1.2682675212673495e-05  1.0871162525972022e-05  9.1545410800010716e-06  7.5736178004738743e-06  6.1548276610286570e-06  4.9126515833412567e-06  3.8509605963151613e-06  2.9646100011350938e-06  2.2414270111612963e-06  1.6643523300938425e-06  1.2133121605580644e-06  8.6595660268823869e-07  5.9460408457218842e-07  3.5010820830004148e-07  0.0000000000000000e+00  6.0000000000000002e-05  5.8022126880791709e-05  5.7181905812593132e-05  5.6871376767442608e-05  5.6700436393184592e-05  5.6529414778968645e-05  5.6296998035410105e-05  5.5964424059418719e-05  5.5499203870150686e-05  5.4872003380689452e-05  5.4058093634898165e-05  5.3040309047876402e-05  5.1812118355635057e-05  5.037993627806123