<?xml version="1.0"?>
<VTKFile type="UnstructuredGrid"  version="0.1"  >
<UnstructuredGrid>
<Piece  NumberOfPoints="2601" NumberOfCells="5000">
<Points>
<DataArray  type="Float64"  NumberOfComponents="3"  format="ascii">-1 0 0  -0.96 0 0  -0.92 0 0  -0.88 0 0  -0.84 0 0  -0.8 0 0  -0.76 0 0  -0.72 0 0  -0.6799999999999999 0 0  -0.64 0 0  -0.6 0 0  -0.5600000000000001 0 0  -0.52 0 0  -0.48 0 0  -0.4399999999999999 0 0  -0.4 0 0  -0.36 0 0  -0.32 0 0  -0.28 0 0  -0.24 0 0  -0.2 0 0  -0.16 0 0  -0.12 0 0  -0.07999999999999996 0 0  -0.04000000000000004 0 0  0 0 0  0.04000000000000004 0 0  0.08000000000000007 0 0  0.1200000000000001 0 0  0.1599999999999999 0 0  0.2 0 0  0.24 0 0  0.28 0 0  0.3200000000000001 0 0  0.3600000000000001 0 0  0.3999999999999999 0 0  0.4399999999999999 0 0  0.48 0 0  0.52 0 0  0.5600000000000001 0 0  0.6000000000000001 0 0  0.6399999999999999 0 0  0.6799999999999999 0 0  0.72 0 0  0.76 0 0  0.8 0 0  0.8400000000000001 0 0  0.8799999999999999 0 0  0.9199999999999999 0 0  0.96 0 0  1 0 0  -1 0.016 0  -0.96 0.016 0  -0.92 0.016 0  -0.88 0.016 0  -0.84 0.016 0  -0.8 0.016 0  -0.76 0.016 0  -0.72 0.016 0  -0.6799999999999999 0.016 0  -0.64 0.016 0  -0.6 0.016 0  -0.5600000000000001 0.016 0  -0.52 0.016 0  -0.48 0.016 0  -0.4399999999999999 0.016 0  -0.4 0.016 0  -0.36 0.016 0  -0.32 0.016 0  -0.28 0.016 0  -0.24 0.016 0  -0.2 0.016 0  -0.16 0.016 0  -0.12 0.016 0  -0.07999999999999996 0.016 0  -0.04000000000000004 0.016 0  0 0.016 0  0.04000000000000004 0.016 0  0.08000000000000007 0.016 0  0.1200000000000001 0.016 0  0.1599999999999999 0.016 0  0.2 0.016 0  0.24 0.016 0  0.28 0.016 0  0.3200000000000001 0.016 0  0.3600000000000001 0.016 0  0.3999999999999999 0.016 0  0.4399999999999999 0.016 0  0.48 0.016 0  0.52 0.016 0  0.5600000000000001 0.016 0  0.6000000000000001 0.016 0  0.6399999999999999 0.016 0  0.6799999999999999 0.016 0  0.72 0.016 0  0.76 0.016 0  0.8 0.016 0  0.8400000000000001 0.016 0  0.8799999999999999 0.016 0  0.9199999999999999 0.016 0  0.96 0.016 0  1 0.016 0  -1 0.032 0  -0.96 0.032 0  -0.92 0.032 0  -0.88 0.032 0  -0.84 0.032 0  -0.8 0.032 0  -0.76 0.032 0  -0.72 0.032 0  -0.6799999999999999 0.032 0  -0.64 0.032 0  -0.6 0.032 0  -0.5600000000000001 0.032 0  -0.52 0.032 0  -0.48 0.032 0  -0.4399999999999999 0.032 0  -0.4 0.032 0  -0.36 0.032 0  -0.32 0.032 0  -0.28 0.032 0  -0.24 0.032 0  -0.2 0.032 0  -0.16 0.032 0  -0.12 0.032 0  -0.07999999999999996 0.032 0  -0.04000000000000004 0.032 0  0 0.032 0  0.04000000000000004 0.032 0  0.08000000000000007 0.032 0  0.1200000000000001 0.032 0  0.1599999999999999 0.032 0  0.2 0.032 0  0.24 0.032 0  0.28 0.032 0  0.3200000000000001 0.032 0  0.3600000000000001 0.032 0  0.3999999999999999 0.032 0  0.4399999999999999 0.032 0  0.48 0.032 0  0.52 0.032 0  0.5600000000000001 0.032 0  0.6000000000000001 0.032 0  0.6399999999999999 0.032 0  0.6799999999999999 0.032 0  0.72 0.032 0  0.76 0.032 0  0.8 0.032 0  0.8400000000000001 0.032 0  0.8799999999999999 0.032 0  0.9199999999999999 0.032 0  0.96 0.032 0  1 0.032 0  -1 0.04800000000000001 0  -0.96 0.04800000000000001 0  -0.92 0.04800000000000001 0  -0.88 0.04800000000000001 0  -0.84 0.04800000000000001 0  -0.8 0.04800000000000001 0  -0.76 0.04800000000000001 0  -0.72 0.04800000000000001 0  -0.6799999999999999 0.04800000000000001 0  -0.64 0.04800000000000001 0  -0.6 0.04800000000000001 0  -0.5600000000000001 0.04800000000000001 0  -0.52 0.04800000000000001 0  -0.48 0.04800000000000001 0  -0.4399999999999999 0.04800000000000001 0  -0.4 0.04800000000000001 0  -0.36 0.04800000000000001 0  -0.32 0.04800000000000001 0  -0.28 0.04800000000000001 0  -0.24 0.04800000000000001 0  -0.2 0.04800000000000001 0  -0.16 0.04800000000000001 0  -0.12 0.04800000000000001 0  -0.07999999999999996 0.04800000000000001 0  -0.04000000000000004 0.04800000000000001 0  0 0.04800000000000001 0  0.04000000000000004 0.04800000000000001 0  0.08000000000000007 0.04800000000000001 0  0.1200000000000001 0.04800000000000001 0  0.1599999999999999 0.04800000000000001 0  0.2 0.04800000000000001 0  0.24 0.04800000000000001 0  0.28 0.04800000000000001 0  0.3200000000000001 0.04800000000000001 0  0.3600000000000001 0.04800000000000001 0  0.3999999999999999 0.04800000000000001 0  0.4399999999999999 0.04800000000000001 0  0.48 0.04800000000000001 0  0.52 0.04800000000000001 0  0.5600000000000001 0.04800000000000001 0  0.6000000000000001 0.04800000000000001 0  0.6399999999999999 0.04800000000000001 0  0.6799999999999999 0.04800000000000001 0  0.72 0.04800000000000001 0  0.76 0.04800000000000001 0  0.8 0.04800000000000001 0  0.8400000000000001 0.04800000000000001 0  0.8799999999999999 0.04800000000000001 0  0.9199999999999999 0.04800000000000001 0  0.96 0.04800000000000001 0  1 0.04800000000000001 0  -1 0.064 0  -0.96 0.064 0  -0.92 0.064 0  -0.88 0.064 0  -0.84 0.064 0  -0.8 0.064 0  -0.76 0.064 0  -0.72 0.064 0  -0.6799999999999999 0.064 0  -0.64 0.064 0  -0.6 0.064 0  -0.5600000000000001 0.064 0  -0.52 0.064 0  -0.48 0.064 0  -0.4399999999999999 0.064 0  -0.4 0.064 0  -0.36 0.064 0  -0.32 0.064 0  -0.28 0.064 0  -0.24 0.064 0  -0.2 0.064 0  -0.16 0.064 0  -0.12 0.064 0  -0.07999999999999996 0.064 0  -0.04000000000000004 0.064 0  0 0.064 0  0.04000000000000004 0.064 0  0.08000000000000007 0.064 0  0.1200000000000001 0.064 0  0.1599999999999999 0.064 0  0.2 0.064 0  0.24 0.064 0  0.28 0.064 0  0.3200000000000001 0.064 0  0.3600000000000001 0.064 0  0.3999999999999999 0.064 0  0.4399999999999999 0.064 0  0.48 0.064 0  0.52 0.064 0  0.5600000000000001 0.064 0  0.6000000000000001 0.064 0  0.6399999999999999 0.064 0  0.6799999999999999 0.064 0  0.72 0.064 0  0.76 0.064 0  0.8 0.064 0  0.8400000000000001 0.064 0  0.8799999999999999 0.064 0  0.9199999999999999 0.064 0  0.96 0.064 0  1 0.064 0  -1 0.08 0  -0.96 0.08 0  -0.92 0.08 0  -0.88 0.08 0  -0.84 0.08 0  -0.8 0.08 0  -0.76 0.08 0  -0.72 0.08 0  -0.6799999999999999 0.08 0  -0.64 0.08 0  -0.6 0.08 0  -0.5600000000000001 0.08 0  -0.52 0.08 0  -0.48 0.08 0  -0.4399999999999999 0.08 0  -0.4 0.08 0  -0.36 0.08 0  -0.32 0.08 0  -0.28 0.08 0  -0.24 0.08 0  -0.2 0.08 0  -0.16 0.08 0  -0.12 0.08 0  -0.07999999999999996 0.08 0  -0.04000000000000004 0.08 0  0 0.08 0  0.04000000000000004 0.08 0  0.08000000000000007 0.08 0  0.1200000000000001 0.08 0  0.1599999999999999 0.08 0  0.2 0.08 0  0.24 0.08 0  0.28 0.08 0  0.3200000000000001 0.08 0  0.3600000000000001 0.08 0  0.3999999999999999 0.08 0  0.4399999999999999 0.08 0  0.48 0.08 0  0.52 0.08 0  0.5600000000000001 0.08 0  0.6000000000000001 0.08 0  0.6399999999999999 0.08 0  0.6799999999999999 0.08 0  0.72 0.08 0  0.76 0.08 0  0.8 0.08 0  0.8400000000000001 0.08 0  0.8799999999999999 0.08 0  0.9199999999999999 0.08 0  0.96 0.08 0  1 0.08 0  -1 0.09600000000000002 0  -0.96 0.09600000000000002 0  -0.92 0.09600000000000002 0  -0.88 0.09600000000000002 0  -0.84 0.09600000000000002 0  -0.8 0.09600000000000002 0  -0.76 0.09600000000000002 0  -0.72 0.09600000000000002 0  -0.6799999999999999 0.09600000000000002 0  -0.64 0.09600000000000002 0  -0.6 0.09600000000000002 0  -0.5600000000000001 0.09600000000000002 0  -0.52 0.09600000000000002 0  -0.48 0.09600000000000002 0  -0.4399999999999999 0.09600000000000002 0  -0.4 0.09600000000000002 0  -0.36 0.09600000000000002 0  -0.32 0.09600000000000002 0  -0.28 0.09600000000000002 0  -0.24 0.09600000000000002 0  -0.2 0.09600000000000002 0  -0.16 0.09600000000000002 0  -0.12 0.09600000000000002 0  -0.07999999999999996 0.09600000000000002 0  -0.04000000000000004 0.09600000000000002 0  0 0.09600000000000002 0  0.04000000000000004 0.09600000000000002 0  0.08000000000000007 0.09600000000000002 0  0.1200000000000001 0.09600000000000002 0  0.1599999999999999 0.09600000000000002 0  0.2 0.09600000000000002 0  0.24 0.09600000000000002 0  0.28 0.09600000000000002 0  0.3200000000000001 0.09600000000000002 0  0.3600000000000001 0.09600000000000002 0  0.3999999999999999 0.09600000000000002 0  0.4399999999999999 0.09600000000000002 0  0.48 0.09600000000000002 0  0.52 0.09600000000000002 0  0.5600000000000001 0.09600000000000002 0  0.6000000000000001 0.09600000000000002 0  0.6399999999999999 0.09600000000000002 0  0.6799999999999999 0.09600000000000002 0  0.72 0.09600000000000002 0  0.76 0.09600000000000002 0  0.8 0.09600000000000002 0  0.8400000000000001 0.09600000000000002 0  0.8799999999999999 0.09600000000000002 0  0.9199999999999999 0.09600000000000002 0  0.96 0.09600000000000002 0  1 0.09600000000000002 0  -1 0.112 0  -0.96 0.112 0  -0.92 0.112 0  -0.88 0.112 0  -0.84 0.112 0  -0.8 0.112 0  -0.76 0.112 0  -0.72 0.112 0  -0.6799999999999999 0.112 0  -0.64 0.112 0  -0.6 0.112 0  -0.5600000000000001 0.112 0  -0.52 0.112 0  -0.48 0.112 0  -0.4399999999999999 0.112 0  -0.4 0.112 0  -0.36 0.112 0  -0.32 0.112 0  -0.28 0.112 0  -0.24 0.112 0  -0.2 0.112 0  -0.16 0.112 0  -0.12 0.112 0  -0.07999999999999996 0.112 0  -0.04000000000000004 0.112 0  0 0.112 0  0.04000000000000004 0.112 0  0.08000000000000007 0.112 0  0.1200000000000001 0.112 0  0.1599999999999999 0.112 0  0.2 0.112 0  0.24 0.112 0  0.28 0.112 0  0.3200000000000001 0.112 0  0.3600000000000001 0.112 0  0.3999999999999999 0.112 0  0.4399999999999999 0.112 0  0.48 0.112 0  0.52 0.112 0  0.5600000000000001 0.112 0  0.6000000000000001 0.112 0  0.6399999999999999 0.112 0  0.6799999999999999 0.112 0  0.72 0.112 0  0.76 0.112 0  0.8 0.112 0  0.8400000000000001 0.112 0  0.8799999999999999 0.112 0  0.9199999999999999 0.112 0  0.96 0.112 0  1 0.112 0  -1 0.128 0  -0.96 0.128 0  -0.92 0.128 0  -0.88 0.128 0  -0.84 0.128 0  -0.8 0.128 0  -0.76 0.128 0  -0.72 0.128 0  -0.6799999999999999 0.128 0  -0.64 0.128 0  -0.6 0.128 0  -0.5600000000000001 0.128 0  -0.52 0.128 0  -0.48 0.128 0  -0.4399999999999999 0.128 0  -0.4 0.128 0  -0.36 0.128 0  -0.32 0.128 0  -0.28 0.128 0  -0.24 0.128 0  -0.2 0.128 0  -0.16 0.128 0  -0.12 0.128 0  -0.07999999999999996 0.128 0  -0.04000000000000004 0.128 0  0 0.128 0  0.04000000000000004 0.128 0  0.08000000000000007 0.128 0  0.1200000000000001 0.128 0  0.1599
[...]
<PointData  Scalars="f_100"> 
<DataArray  type="Float64"  Name="f_100"  format="ascii">6.0000000000000002e-05  5.4287290455532114e-05  5.3033496885083262e-05  5.2634117847106996e-05  5.2493594023683230e-05  5.2424962864150219e-05  5.2364568557424904e-05  5.2286073296136440e-05  5.2173353745294521e-05  5.2011986064440225e-05  5.1786794529628432e-05  5.1481545419876524e-05  5.1079552030857071e-05  5.0564763649301196e-05  4.9923090974261547e-05  4.9143444845386601e-05  4.8215324492637721e-05  4.7096895117550114e-05  4.5518118791548369e-05  3.7125281042864600e-05  2.7125430527634300e-05  2.2481135658711356e-05  1.9282667688846801e-05  1.6890153592180738e-05  1.5032624226367742e-05  1.3557759460481310e-05  1.2370608134631586e-05  1.1418374968988557e-05  1.0709343449071861e-05  1.0405794217116325e-05  1.1148421976500704e-05  1.5581235512697925e-05  2.1936902496971420e-05  2.3232444119732246e-05  2.2735691143461291e-05  2.1597767546171159e-05  2.0219672978652915e-05  1.8732611705179788e-05  1.7186105885247725e-05  1.5608185308758335e-05  1.4023188301719691e-05  1.2455954226410729e-05  1.0931663605209831e-05  9.4743471204968220e-06  8.1050118541615659e-06  6.8393029951167701e-06  5.6830583783398578e-06  4.6195753038841911e-06  3.5684000423841603e-06  2.2584731189804167e-06  0.0000000000000000e+00  6.0000000000000002e-05  5.4561374796096212e-05  5.3300869130217125e-05  5.2898485564223385e-05  5.2756974693836602e-05  5.2687970263890173e-05  5.2627351984309561e-05  5.2548611712023997e-05  5.2435541165736011e-05  5.2273650187404119e-05  5.2047694356257751e-05  5.1741363382941879e-05  5.1337886779276055e-05  5.0821126741665604e-05  5.0176909859500061e-05  4.9394075588694648e-05  4.8462091844062857e-05  4.7339421078631363e-05  4.5733980477230409e-05  3.8092697648623462e-05  2.8478178557037954e-05  2.3605856031757257e-05  2.0234748455235509e-05  1.7714842782667669e-05  1.5759598340764792e-05  1.4207822095575086e-05  1.2958919008792765e-05  1.1956073059539345e-05  1.1204220338941889e-05  1.0861843691191844e-05  1.1563315982344984e-05  1.5744225854615067e-05  2.2035138127032617e-05  2.3351993345467788e-05  2.2855525505833487e-05  2.1712917264430303e-05  2.0328415576789834e-05  1.8834209205847656e-05  1.7280145817443153e-05  1.5694401563189014e-05  1.4101426925979562e-05  1.2526178373589747e-05  1.0993963419536451e-05  9.5289435622797019e-06  8.1522517265247711e-06  6.8796462447421446e-06  5.7170620437160159e-06  4.6478843098016021e-06  3.5917644015755839e-06  2.2778645512807276e-06  0.0000000000000000e+00  6.0000000000000002e-05  5.4831413825703743e-05  5.3567420740773673e-05  5.3163496746690066e-05  5.3021460118264635e-05  5.2952227905432445e-05  5.2891431232443450e-05  5.2812459673272186e-05  5.2699041389453325e-05  5.2536626510899678e-05  5.2309903814497579e-05  5.2002486813349053e-05  5.1597521100238637e-05  5.1078781499919046e-05  5.0432010421758909e-05  4.9645978157236181e-05  4.8710143118841905e-05  4.7583453345736976e-05  4.5957443633514358e-05  3.8977465265240509e-05  2.9819684771438538e-05  2.4727910118242291e-05  2.1194723119252205e-05  1.8552521940557768e-05  1.6502181470798836e-05  1.4874845332227740e-05  1.3564792442587079e-05  1.2511400951841665e-05  1.1716227367204575e-05  1.1333425830689652e-05  1.1987151762581909e-05  1.5942703508375606e-05  2.2147991769479428e-05  2.3476881924309234e-05  2.2977489948702540e-05  2.1829146001321375e-05  2.0437883311621585e-05  1.8936396590746700e-05  1.7374707844235737e-05  1.5781092399470582e-05  1.4180098365598644e-05  1.2596795076462339e-05  1.1056616082618654e-05  9.5838538165789005e-06  8.1997675231498442e-06  6.9202292898861211e-06  5.7512717976862199e-06  4.6763680410916712e-06  3.6152637413184594e-06  2.2972184903316068e-06  0.0000000000000000e+00  6.0000000000000002e-05  5.5096611684369825e-05  5.3833111035337938e-05  5.3429144554784517e-05  5.3287052695617028e-05  5.3217741111979574e-05  5.3156812577470809e-05  5.3077623795361862e-05  5.2963861189434849e-05  5.2800921919087982e-05  5.2573429894724988e-05  5.2264922812193745e-05  5.1858462207146733e-05  5.1337735241597924e-05  5.0688400053585948e-05  4.9899159900096755e-05  4.8959484899535757e-05  4.7828981399396242e-05  4.6188029860952482e-05  3.9790825012075424e-05  3.1116189861956152e-05  2.5841233674141843e-05  2.2159959031422689e-05  1.9401833973426626e-05  1.7259730540789109e-05  1.5558634819968402e-05  1.4188332806687615e-05  1.3084673117446095e-05  1.2245849714117643e-05  1.1821247123910600e-05  1.2421957633986171e-05  1.6172288534216427e-05  2.2275695955236857e-05  2.3607189927400067e-05  2.3101617771633326e-05  2.1946466813680586e-05  2.0548082676924579e-05  1.9039178167510790e-05  1.7469795417328522e-05  1.5868260788507164e-05  1.4259205195455816e-05  1.2667806519171780e-05  1.1119623380923795e-05  9.6390792732737113e-06  8.2475602483057410e-06  6.9610527572923718e-06  5.7856878529642368e-06  4.7050261106529259e-06  3.6388966997243851e-06  2.3165291134375258e-06  0.0000000000000000e+00  6.0000000000000002e-05  5.5356410213064217e-05  5.4097915557605086e-05  5.3695426280489552e-05  5.3553756139704764e-05  5.3484515636577332e-05  5.3423502440295159e-05  5.3344110742084905e-05  5.3230007347172340e-05  5.3066543280620655e-05  5.2838279550654501e-05  5.2528678421971273e-05  5.2120717231717251e-05  5.1597995179353164e-05  5.0946086021292191e-05  5.0153628025073073e-05  4.9210123631380529e-05  4.8075999117963530e-05  4.6425256683638337e-05  4.0542758863310223e-05  3.2351412025606493e-05  2.6941472621274150e-05  2.3128199746676383e-05  2.0261608466005318e-05  1.8031725841077354e-05  1.6259089754968599e-05  1.4829720024738320e-05  1.3676264227122791e-05  1.2793610493204102e-05  1.2326001766597753e-05  1.2869443514117223e-05  1.6429859426117706e-05  2.2418420751835633e-05  2.3742976884793087e-05  2.3227933537277930e-05  2.2064889888151951e-05  2.0659019217766816e-05  1.9142557900774350e-05  1.7565411842462625e-05  1.5955909630639379e-05  1.4338749962151385e-05  1.2739214892660693e-05  1.1182987141786616e-05  9.6946213964130620e-06  8.2956310121901395e-06  7.0021174112141604e-06  5.8203106005843514e-06  4.7338583938796825e-06  3.6626623965105373e-06  2.3357939144424060e-06  0.0000000000000000e+00  6.0000000000000002e-05  5.5610445657268871e-05  5.4361823962736653e-05  5.3962343119866547e-05  5.3821575411414783e-05  5.3752557642210569e-05  5.3691507383233211e-05  5.3611927227999587e-05  5.3497486658719338e-05  5.3333497457850180e-05  5.3104459711936316e-05  5.2793760642937953e-05  5.2384293244384408e-05  5.1859568445415555e-05  5.1205075492934612e-05  5.0409389627098615e-05  4.9462065626779166e-05  4.8324503446705725e-05  4.6668650411591096e-05  4.1242004097263235e-05  3.3519229151631917e-05  2.8025145203976027e-05  2.4097449252289754e-05  2.1130808776773109e-05  1.8817737244392379e-05  1.6976179686484325e-05  1.5489193698329620e-05  1.4286599926904268e-05  1.3360071125444436e-05  1.2848393347883202e-05  1.3331085743984554e-05  1.6713207080032379e-05  2.2576275282539008e-05  2.3884282116333824e-05  2.3356453513412582e-05  2.2184422707220209e-05  2.0770697593543829e-05  1.9246539442100766e-05  1.7661560297538552e-05  1.6044041767544109e-05  1.4418735190553077e-05  1.2811022395559738e-05  1.1246709228305205e-05  9.7504817130746856e-06  8.3439810139532921e-06  7.0434241306065656e-06  5.8551405797084727e-06  4.7628649845141479e-06  3.6865603599038005e-06  2.3550130636978399e-06  0.0000000000000000e+00  6.0000000000000002e-05  5.5858512737750423e-05  5.4624838529379366e-05  5.4229899988224047e-05  5.4090516662361649e-05  5.4021873685343016e-05  5.3960834106849073e-05  5.3881080020477144e-05  5.3766305939713037e-05  5.3601791314450798e-05  5.3371977294568488e-05  5.3060176446622020e-05  5.2649197271136882e-05  5.2122462111777019e-05  5.1465375561401357e-05  5.0666451711795036e-05  4.9715317072019865e-05  4.8574493335378123e-05  4.6917755153194674e-05  4.1896139704407263e-05  3.4619295621343060e-05  2.9089398775766415e-05  2.5065938914338786e-05  2.2008513222526238e-05  1.9617411652359548e-05  1.7709935893358765e-05  1.6167047467196463e-05  1.4916154250789912e-05  1.3945833710593923e-05  1.3389148109063766e-05  1.3808190939404548e-05  1.7020787056773223e-05  2.2749311040485918e-05  2.4031124976609215e-05  2.3487186043018675e-05  2.2305070186554550e-05  2.0883121630064781e-05  1.9351126154682138e-05  1.7758243847546168e-05  1.6132659992019330e-05  1.4499163389160818e-05  1.2883231234888713e-05  1.1310791535107514e-05  9.8066618041654048e-06  8.3926115277025002e-06  7.0849738903427704e-06  5.8901784527783887e-06  4.7920461582850181e-06  3.7105904668563105e-06  2.3741888813429614e-06  0.0000000000000000e+00  6.0000000000000002e-05  5.6100534884808769e-05  5.4886973114343781e-05  5.4498105365683245e-05  5.4360587187242522e-05  5.4292470701993111e-05  5.4231489447253272e-05  5.4151575941381186e-05  5.4036472029532448e-05  5.3871431721726625e-05  5.3640839209506976e-05  5.3327932786986405e-05  5.2915436307418916e-05  5.2386683206844136e-05  5.1726993263465148e-05  5.0924821215008941e-05  4.9969884035220437e-05  4.8825968901758528e-05  4.7172138808263808e-05  4.2511704539367520e-05  3.5654429285958839e-05  3.0131979512534600e-05  2.6032126387470121e-05  2.2893913559804048e-05  2.0430471828885566e-05  1.8460450718548502e-05  1.6863629006002616e-05  1.5565450691109217e-05  1.4551544447502321e-05  1.3949023614883310e-05  1.4301944737110778e-05  1.7351542021745660e-05  2.2937526007875563e-05  2.4183505039567291e-05  2.3620131859558250e-05  2.2426834790714082e-05  2.0996294363272998e-05  1.9456321133940073e-05  1.7855465456934905e-05  1.6221767056053338e-05  1.4580037054512209e-05  1.2955843626612794e-05  1.1375235984842580e-05  9.8631632968261550e-06  8.4415238909650971e-06  7.1267677457451521e-06  5.9254249850661130e-06  4.8214023429471958e-06  3.7347528939328064e-06  2.3933254050358962e-06  0.0000000000000000e+00  6.0000000000000002e-05  5.6336539627296140e-05  5.5148252412394257e-05  5.4766971163815088e-05  5.4631795382467326e-05  5.4564355995617697e-05  5.4503480373695930e-05  5.4423421868416364e-05  5.4307991794735986e-05  5.4142425563835478e-05  5.3911052369790504e-05  5.3597036609657074e-05  5.3183017329613278e-05  5.2652238729187253e-05  5.1989935595517990e-05  5.1184505019044517e-05  5.0225772474825426e-05  4.9078930783760234e-05  4.7431396729080862e-05  4.3094324404951643e-05  3.6629065744431408e-05  3.1151250735162586e-05  2.6994706216578671e-05  2.3786322205021956e-05  2.1256721360335747e-05  1.9227881303384726e-05  1.7579343181648703e-05  1.6235065336263976e-05  1.5177897653845008e-05  1.4528815056876060e-05  1.4813449520686254e-05  1.7704774356722951e-05  2.3140868944541987e-05  2.4341402245861148e-05  2.3755284361552045e-05  2.2549716632907076e-05  2.1110218076685063e-05  1.9562127224943664e-05  1.7953227999939135e-05  1.6311365677504831e-05  1.4661358674809819e-05  1.3028861796087566e-05  1.1440044525275003e-05  9.9199878581634406e-06  8.4907194951792101e-06  7.1688068198467892e-06  5.9608810278427189e-06  4.8509340935828649e-06  3.7590480767547473e-06  2.4124280363775980e-06  0.0000000000000000e+00  6.0000000000000002e-05  5.6566638291239965e-05  5.5408711418885691e-05  5.5036512606314946e-05  5.4904150709123778e-05  5.4837537226222116e-05  5.4776813986319068e-05  5.4696624736178215e-05  5.4580872131896983e-05  5.4414779742116514e-05  5.4182623696440784e-05  5.3867494859557877e-05  5.3451947304533102e-05  5.2919135658898570e-05  5.2254209526574284e-05  5.1445509966179223e-05  5.0482988248226175e-05  4.9333379647586856e-05  4.7695153607937557e-05  4.3648835712805890e-05  3.7548355430755378e-05  3.2146199131612533e-05  2.7952623798666672e-05  2.4685183668223092e-05  2.2096052904361444e-05  2.0012455797474786e-05  1.8314657034282380e-05  1.6925631226241075e-05  1.5825640178595280e-05  1.5129360448075010e-05  1.5343754033363728e-05  1.8080054696985598e-05  2.3359243450989641e-05  2.4504777032776418e-05  2.3892629858058496e-05  2.2673713563389648e-05  2.1224894334226818e-05  1.9668547037386413e-05  1.8051534269278474e-05  1.6401458545660722e-05  1.4743130732918151e-05  1.3102287978419376e-05  1.1505219126881554e-05  9.9771371900772250e-06  8.5401997778568716e-06  7.2110922929017732e-06  5.9965475045239691e-06  4.8806420722261346e-06  3.7834766763076072e-06  2.4315032528619076e-06  0.0000000000000000e+00  6.0000000000000002e-05  5.6791009300032077e-05  5.5668395020210454e-05  5.5306748118392595e-05  5.5177663658729206e-05  5.5112022400232761e-05  5.5051497513961755e-05  5.4971191536932120e-05  5.4855119969935464e-05  5.4688501178677635e-05  5.4455560123353670e-05  5.4139314487232979e-05  5.3722233197274220e-05  5.3187380966981890e-05  5.2519822009026496e-05  5.1707842869947318e-05  5.0741537120249747e-05  4.9589315823868884e-05  4.7963064038313939e-05  4.4179399566764893e-05  3.8417647057227360e-05  3.3116414270454319e-05  2.8905088968485271e-05  2.5590087739685164e-05  2.2948458178450869e-05  2.0814480995920093e-05  1.9070105856751172e-05  1.7637843470918243e-05  1.6495576116167377e-05  1.5751545406853726e-05  1.5893876984266906e-05  1.8477156236505686e-05  2.3592511572705357e-05  2.4673570463354580e-05  2.4032147794579272e-05  2.2798821250188074e-05  2.1340324009814766e-05  1.9775582958722425e-05  1.8150386983575014e-05  1.6492048325889755e-05  1.4825355708850761e-05  1.3176124418761808e-05  1.1570761780865686e-05  1.0034613024994918e-05  8.5899662161261920e-06  7.2536253937474917e-06  6.0324253992644220e-06  4.9105270310395346e-06  3.8080395507556520e-06  2.4505583743535878e-06  0.0000000000000000e+00  6.0000000000000002e-05  5.7009884483122935e-05  5.5927357657886165e-05  5.5577699220839059e-05  5.5452345720539731e-05  5.5387819860764514e-05  5.5327538311935013e-05  5.5247129321145794e-05  5.5130742272027598e-05  5.4963596819370436e-05  5.4729868601358527e-05  5.4412502454088596e-05  5.3993881977717920e-05  5.3456981623122750e-05  5.2786779987551902e-05  5.1971510524591373e-05  5.1001424771387601e-05  4.9846739047799247e-05  4.8234812102983168e-05  4.4689603720306662e-05  3.9242202465229818e-05  3.4062044899531853e-05  2.9851587357123241e-05  2.6500783071268291e-05  2.3814038830299093e-05  2.1634350825739559e-05  1.9846299975614301e-05  1.8372464886164713e-05  1.7188571784283931e-05  1.6396307904603957e-05  1.6464826197367597e-05  1.8896007550648336e-05  2.3840496819648479e-05  2.4847704368349899e-05  2.4173810967202043e-05  2.2925033255093539e-05  2.1456507314763101e-05  1.9883237165946186e-05  1.8249788793765586e-05  1.6583137663570034e-05  1.4908036081845867e-05  1.3250373372564644e-05  1.1636674497519813e-05  1.0092417122354116e-05  8.6400203214105160e-06  7.2964073926917420e-06  6.0685157475650557e-06  4.9405897984071961e-06  3.8327377316792259e-06  2.4696013749079703e-06  0.0000000000000000e+00  6.0000000000000002e-05  5.7223537896553014e-05  5.6185663027980018e-05  5.5849390425700735e-05  5.5728209349444992e-05  5.5664938277993178e-05  5.5604943859702349e-05  5.5524445197796948e-05  5.5407746037160596e-05  5.5240073636259179e-05  5.5005556101592197e-05  5.4687065736744885e-05  5.4266900625923013e-05  5.3727944602125789e-05  5.3055090406498828e-05  5.2236519713011721e-05  5.1262656805720392e-05  5.0105648282953180e-05  4.8510110264759327e-05  4.5182551890900854e-05  4.0027049295738960e-05  3.4983740746624575e-05  3.0791888620783189e-05  2.7417190406290359e-05  2.4693017706019094e-05  2.2472555356695958e-05  2.0643932013255576e-05  1.9130332014272352e-05  1.7905560950713511e-05  1.7064643169931682e-05  1.7057614456467003e-05  1.9336658754332560e-05  2.4102986544299843e-05  2.5027081512112984e-05  2.4317585731367479e-05  2.3052341107277470e-05  2.1573443823878001e-05  1.9991511636406018e-05  1.8349742288735307e-05  1.6674729187435934e-05  1.4991174332110645e-05  1.3325037105787966e-05  1.1702959304876937e-05  1.0150551265703858e-05  8.6903636350447371e-06  7.3394395956550234e-06  6.1048196285362202e-06  4.9708312674218579e-06  3.8575724038659532e-06  2.4886407322595747e-06  0.0000000000000000e+00  6.0000000000000002e-05  5.7432276739453302e-05  5.6443383789512108e-05  5.6121849131228371e-05  5.6005267933687325e-05  5.5943386639406414e-05  5.5883721758416807e-05  5.5803146334475042e-05  5.5686138301389142e-05  5.5517938629671042e-05  5.5282629618308435e-05  5.4963011330655722e-05  5.4541296136604305e-05  5.4000276889256252e-05  5.3324760216023358e-05  5.2502877213486183e-05  5.1525238758551035e-05  5.0366041611738576e-05  4.8788697772406764e-05  4.5660941000374884e-05  4.0776915010400643e-05  3.5882588392417993e-05  3.1726051250072431e-05  2.8339415063821045e-05  2.5585750237903987e-05  2.3329690149074360e-05  2.1463784505578163e-05  1.9912361454366111e-05  1.8647550303098151e-05  1.7757608842390647e-05  1.7673272913705817e-05  1.9799257287412036e-05  2.4379733665457300e-05  2.5211585791430669e-05  2.4463432210460756e-05  2.3180734376384124e-05  2.1691132500922235e-05  2.0100408157963964e-05  1.8450250000355712e-05  1.6766825512462941e-05  1.5074772942299482e-05  1.3400117895091353e-05  1.1769618247602934e-05  1.0209017260316657e-05  8.7409977246637795e-06  7.3827233393456281e-06  6.1413381585208614e-06  5.0012523863351969e-06  3.8825448879600157e-06  2.5076853085707518e-06  0.0000000000000000e+00  6.0000000000000002e-05  5.7636434018359611e-05  5.6700601264373999e-05  5.6395105514335548e-05  5.6283535761816059e-05  5.6223174239758818e-05  5.6163879728278320e-05  5.6083239957294247e-05  5.5965926138840325e-05  5.5797198829900245e-05  5.5561096171222392e-05  5.5240346253126221e-05  5.4817075522859844e-05  5.4273985484680839e-05  5.3595796377199535e-05  5.2770589805384380e-05  5.1789176103792351e-05  5.0627916178294202e-05  4.9070338743336383e-05  4.6127127437645222e-05  4.1496208261951322e-05  3.6760047828058849e-05  3.2654424118033170e-05  2.9267758494303372e-05  2.6492735789906359e-05  2.4206465826385913e-05  2.2306737801046403e-05  2.0719556459690341e-05  1.9415625158906884e-05  1.8476330416447116e-05  1.8312862720532867e-05  2.0284030670702192e-05  2.4670457751432746e-05  2.5401082474760731e-05  2.4611304508433529e-05  2.3310200746553924e-05  2.1809571723987306e-05  2.0209928338751597e-05  1.8551314408075989e-05  1.6859429242387222e-05  1.5158834398779509e-05  1.3475618028005824e-05  1.1836653386088931e-05  1.0267816931222083e-05  8.7919241812269210e-06  7.4262599872840467e-06  6.1780724858348825e-06  5.0318541506168678e-06  3.9076566254112595e-06  2.5267442570853540e-06  0.0000000000000000e+00  6.0000000000000002e-05  5.7836362667908705e-05  5.6957405117826571e-05  5.6669192419244427e-05  5.6563027988428639e-05  5.6504310670599103e-05  5.6445425605684727e-05  5.6364733350632788e-05  5.6247116662505941e-05  5.6077861298625844e-05  5.5840962807472591e-05  5.5519077545835348e-05  5.5094245819281276e-05  5.4549077407168873e-05  5.3868205866287593e-05  5.3039664274061536e-05  5.2054474261173085e-05  5.0891268172157886e-05  4.9354820044134921e-05  4.6583183644022458e-05  4.2189027219460781e-05  3.7617894102305054e-05  3.3577645243839764e-05  3.0202728856298002e-05  2.7414628868062122e-05  2.5103717803368316e-05  2.3173778194783129e-05  2.1553013775142673e-05  2.0210955412768171e-05  1.9222006990709332e-05  1.8977485386879041e-05  2.0791274327770587e-05  2.4974845491237686e-05  2.5595418488135077e-05  2.4761150929823753e-05  2.3440726092499893e-05  2.1928759311190534e-05  2.0320073616719463e-05  1.8652937943187108e-05  1.6952542971938573e-05  1.5243361192726647e-05  1.3551539803094394e-05  1.1904066795709951e-05  1.0326952121587995e-05  8.8431446165652845e-06  7.4700509265252247e-06  6.2150237864241597e-06  5.0626375963300447e-06  3.9329091652752808e-06  2.5458269502102865e-06  0.0000000000000000e+00  6.0000000000000002e-05  5.8032430883977149e-05  5.7213893013348845e-05  5.6944145241347041e-05  5.6843760598366913e-05  5.6786805809272432e-05  5.6728367340158796e-05  5.6647633856712480e-05  5.6529717024855093e-05  5.6359933130092957e-05  5.6122236603268589e-05  5.5799212276952457e-05  5.5372814084557996e-05  5.482555969718703