<?xml version="1.0"?>
<VTKFile type="UnstructuredGrid"  version="0.1"  >
<UnstructuredGrid>
<Piece  NumberOfPoints="2601" NumberOfCells="5000">
<Points>
<DataArray  type="Float64"  NumberOfComponents="3"  format="ascii">-1 0 0  -0.96 0 0  -0.92 0 0  -0.88 0 0  -0.84 0 0  -0.8 0 0  -0.76 0 0  -0.72 0 0  -0.6799999999999999 0 0  -0.64 0 0  -0.6 0 0  -0.5600000000000001 0 0  -0.52 0 0  -0.48 0 0  -0.4399999999999999 0 0  -0.4 0 0  -0.36 0 0  -0.32 0 0  -0.28 0 0  -0.24 0 0  -0.2 0 0  -0.16 0 0  -0.12 0 0  -0.07999999999999996 0 0  -0.04000000000000004 0 0  0 0 0  0.04000000000000004 0 0  0.08000000000000007 0 0  0.1200000000000001 0 0  0.1599999999999999 0 0  0.2 0 0  0.24 0 0  0.28 0 0  0.3200000000000001 0 0  0.3600000000000001 0 0  0.3999999999999999 0 0  0.4399999999999999 0 0  0.48 0 0  0.52 0 0  0.5600000000000001 0 0  0.6000000000000001 0 0  0.6399999999999999 0 0  0.6799999999999999 0 0  0.72 0 0  0.76 0 0  0.8 0 0  0.8400000000000001 0 0  0.8799999999999999 0 0  0.9199999999999999 0 0  0.96 0 0  1 0 0  -1 0.016 0  -0.96 0.016 0  -0.92 0.016 0  -0.88 0.016 0  -0.84 0.016 0  -0.8 0.016 0  -0.76 0.016 0  -0.72 0.016 0  -0.6799999999999999 0.016 0  -0.64 0.016 0  -0.6 0.016 0  -0.5600000000000001 0.016 0  -0.52 0.016 0  -0.48 0.016 0  -0.4399999999999999 0.016 0  -0.4 0.016 0  -0.36 0.016 0  -0.32 0.016 0  -0.28 0.016 0  -0.24 0.016 0  -0.2 0.016 0  -0.16 0.016 0  -0.12 0.016 0  -0.07999999999999996 0.016 0  -0.04000000000000004 0.016 0  0 0.016 0  0.04000000000000004 0.016 0  0.08000000000000007 0.016 0  0.1200000000000001 0.016 0  0.1599999999999999 0.016 0  0.2 0.016 0  0.24 0.016 0  0.28 0.016 0  0.3200000000000001 0.016 0  0.3600000000000001 0.016 0  0.3999999999999999 0.016 0  0.4399999999999999 0.016 0  0.48 0.016 0  0.52 0.016 0  0.5600000000000001 0.016 0  0.6000000000000001 0.016 0  0.6399999999999999 0.016 0  0.6799999999999999 0.016 0  0.72 0.016 0  0.76 0.016 0  0.8 0.016 0  0.8400000000000001 0.016 0  0.8799999999999999 0.016 0  0.9199999999999999 0.016 0  0.96 0.016 0  1 0.016 0  -1 0.032 0  -0.96 0.032 0  -0.92 0.032 0  -0.88 0.032 0  -0.84 0.032 0  -0.8 0.032 0  -0.76 0.032 0  -0.72 0.032 0  -0.6799999999999999 0.032 0  -0.64 0.032 0  -0.6 0.032 0  -0.5600000000000001 0.032 0  -0.52 0.032 0  -0.48 0.032 0  -0.4399999999999999 0.032 0  -0.4 0.032 0  -0.36 0.032 0  -0.32 0.032 0  -0.28 0.032 0  -0.24 0.032 0  -0.2 0.032 0  -0.16 0.032 0  -0.12 0.032 0  -0.07999999999999996 0.032 0  -0.04000000000000004 0.032 0  0 0.032 0  0.04000000000000004 0.032 0  0.08000000000000007 0.032 0  0.1200000000000001 0.032 0  0.1599999999999999 0.032 0  0.2 0.032 0  0.24 0.032 0  0.28 0.032 0  0.3200000000000001 0.032 0  0.3600000000000001 0.032 0  0.3999999999999999 0.032 0  0.4399999999999999 0.032 0  0.48 0.032 0  0.52 0.032 0  0.5600000000000001 0.032 0  0.6000000000000001 0.032 0  0.6399999999999999 0.032 0  0.6799999999999999 0.032 0  0.72 0.032 0  0.76 0.032 0  0.8 0.032 0  0.8400000000000001 0.032 0  0.8799999999999999 0.032 0  0.9199999999999999 0.032 0  0.96 0.032 0  1 0.032 0  -1 0.04800000000000001 0  -0.96 0.04800000000000001 0  -0.92 0.04800000000000001 0  -0.88 0.04800000000000001 0  -0.84 0.04800000000000001 0  -0.8 0.04800000000000001 0  -0.76 0.04800000000000001 0  -0.72 0.04800000000000001 0  -0.6799999999999999 0.04800000000000001 0  -0.64 0.04800000000000001 0  -0.6 0.04800000000000001 0  -0.5600000000000001 0.04800000000000001 0  -0.52 0.04800000000000001 0  -0.48 0.04800000000000001 0  -0.4399999999999999 0.04800000000000001 0  -0.4 0.04800000000000001 0  -0.36 0.04800000000000001 0  -0.32 0.04800000000000001 0  -0.28 0.04800000000000001 0  -0.24 0.04800000000000001 0  -0.2 0.04800000000000001 0  -0.16 0.04800000000000001 0  -0.12 0.04800000000000001 0  -0.07999999999999996 0.04800000000000001 0  -0.04000000000000004 0.04800000000000001 0  0 0.04800000000000001 0  0.04000000000000004 0.04800000000000001 0  0.08000000000000007 0.04800000000000001 0  0.1200000000000001 0.04800000000000001 0  0.1599999999999999 0.04800000000000001 0  0.2 0.04800000000000001 0  0.24 0.04800000000000001 0  0.28 0.04800000000000001 0  0.3200000000000001 0.04800000000000001 0  0.3600000000000001 0.04800000000000001 0  0.3999999999999999 0.04800000000000001 0  0.4399999999999999 0.04800000000000001 0  0.48 0.04800000000000001 0  0.52 0.04800000000000001 0  0.5600000000000001 0.04800000000000001 0  0.6000000000000001 0.04800000000000001 0  0.6399999999999999 0.04800000000000001 0  0.6799999999999999 0.04800000000000001 0  0.72 0.04800000000000001 0  0.76 0.04800000000000001 0  0.8 0.04800000000000001 0  0.8400000000000001 0.04800000000000001 0  0.8799999999999999 0.04800000000000001 0  0.9199999999999999 0.04800000000000001 0  0.96 0.04800000000000001 0  1 0.04800000000000001 0  -1 0.064 0  -0.96 0.064 0  -0.92 0.064 0  -0.88 0.064 0  -0.84 0.064 0  -0.8 0.064 0  -0.76 0.064 0  -0.72 0.064 0  -0.6799999999999999 0.064 0  -0.64 0.064 0  -0.6 0.064 0  -0.5600000000000001 0.064 0  -0.52 0.064 0  -0.48 0.064 0  -0.4399999999999999 0.064 0  -0.4 0.064 0  -0.36 0.064 0  -0.32 0.064 0  -0.28 0.064 0  -0.24 0.064 0  -0.2 0.064 0  -0.16 0.064 0  -0.12 0.064 0  -0.07999999999999996 0.064 0  -0.04000000000000004 0.064 0  0 0.064 0  0.04000000000000004 0.064 0  0.08000000000000007 0.064 0  0.1200000000000001 0.064 0  0.1599999999999999 0.064 0  0.2 0.064 0  0.24 0.064 0  0.28 0.064 0  0.3200000000000001 0.064 0  0.3600000000000001 0.064 0  0.3999999999999999 0.064 0  0.4399999999999999 0.064 0  0.48 0.064 0  0.52 0.064 0  0.5600000000000001 0.064 0  0.6000000000000001 0.064 0  0.6399999999999999 0.064 0  0.6799999999999999 0.064 0  0.72 0.064 0  0.76 0.064 0  0.8 0.064 0  0.8400000000000001 0.064 0  0.8799999999999999 0.064 0  0.9199999999999999 0.064 0  0.96 0.064 0  1 0.064 0  -1 0.08 0  -0.96 0.08 0  -0.92 0.08 0  -0.88 0.08 0  -0.84 0.08 0  -0.8 0.08 0  -0.76 0.08 0  -0.72 0.08 0  -0.6799999999999999 0.08 0  -0.64 0.08 0  -0.6 0.08 0  -0.5600000000000001 0.08 0  -0.52 0.08 0  -0.48 0.08 0  -0.4399999999999999 0.08 0  -0.4 0.08 0  -0.36 0.08 0  -0.32 0.08 0  -0.28 0.08 0  -0.24 0.08 0  -0.2 0.08 0  -0.16 0.08 0  -0.12 0.08 0  -0.07999999999999996 0.08 0  -0.04000000000000004 0.08 0  0 0.08 0  0.04000000000000004 0.08 0  0.08000000000000007 0.08 0  0.1200000000000001 0.08 0  0.1599999999999999 0.08 0  0.2 0.08 0  0.24 0.08 0  0.28 0.08 0  0.3200000000000001 0.08 0  0.3600000000000001 0.08 0  0.3999999999999999 0.08 0  0.4399999999999999 0.08 0  0.48 0.08 0  0.52 0.08 0  0.5600000000000001 0.08 0  0.6000000000000001 0.08 0  0.6399999999999999 0.08 0  0.6799999999999999 0.08 0  0.72 0.08 0  0.76 0.08 0  0.8 0.08 0  0.8400000000000001 0.08 0  0.8799999999999999 0.08 0  0.9199999999999999 0.08 0  0.96 0.08 0  1 0.08 0  -1 0.09600000000000002 0  -0.96 0.09600000000000002 0  -0.92 0.09600000000000002 0  -0.88 0.09600000000000002 0  -0.84 0.09600000000000002 0  -0.8 0.09600000000000002 0  -0.76 0.09600000000000002 0  -0.72 0.09600000000000002 0  -0.6799999999999999 0.09600000000000002 0  -0.64 0.09600000000000002 0  -0.6 0.09600000000000002 0  -0.5600000000000001 0.09600000000000002 0  -0.52 0.09600000000000002 0  -0.48 0.09600000000000002 0  -0.4399999999999999 0.09600000000000002 0  -0.4 0.09600000000000002 0  -0.36 0.09600000000000002 0  -0.32 0.09600000000000002 0  -0.28 0.09600000000000002 0  -0.24 0.09600000000000002 0  -0.2 0.09600000000000002 0  -0.16 0.09600000000000002 0  -0.12 0.09600000000000002 0  -0.07999999999999996 0.09600000000000002 0  -0.04000000000000004 0.09600000000000002 0  0 0.09600000000000002 0  0.04000000000000004 0.09600000000000002 0  0.08000000000000007 0.09600000000000002 0  0.1200000000000001 0.09600000000000002 0  0.1599999999999999 0.09600000000000002 0  0.2 0.09600000000000002 0  0.24 0.09600000000000002 0  0.28 0.09600000000000002 0  0.3200000000000001 0.09600000000000002 0  0.3600000000000001 0.09600000000000002 0  0.3999999999999999 0.09600000000000002 0  0.4399999999999999 0.09600000000000002 0  0.48 0.09600000000000002 0  0.52 0.09600000000000002 0  0.5600000000000001 0.09600000000000002 0  0.6000000000000001 0.09600000000000002 0  0.6399999999999999 0.09600000000000002 0  0.6799999999999999 0.09600000000000002 0  0.72 0.09600000000000002 0  0.76 0.09600000000000002 0  0.8 0.09600000000000002 0  0.8400000000000001 0.09600000000000002 0  0.8799999999999999 0.09600000000000002 0  0.9199999999999999 0.09600000000000002 0  0.96 0.09600000000000002 0  1 0.09600000000000002 0  -1 0.112 0  -0.96 0.112 0  -0.92 0.112 0  -0.88 0.112 0  -0.84 0.112 0  -0.8 0.112 0  -0.76 0.112 0  -0.72 0.112 0  -0.6799999999999999 0.112 0  -0.64 0.112 0  -0.6 0.112 0  -0.5600000000000001 0.112 0  -0.52 0.112 0  -0.48 0.112 0  -0.4399999999999999 0.112 0  -0.4 0.112 0  -0.36 0.112 0  -0.32 0.112 0  -0.28 0.112 0  -0.24 0.112 0  -0.2 0.112 0  -0.16 0.112 0  -0.12 0.112 0  -0.07999999999999996 0.112 0  -0.04000000000000004 0.112 0  0 0.112 0  0.04000000000000004 0.112 0  0.08000000000000007 0.112 0  0.1200000000000001 0.112 0  0.1599999999999999 0.112 0  0.2 0.112 0  0.24 0.112 0  0.28 0.112 0  0.3200000000000001 0.112 0  0.3600000000000001 0.112 0  0.3999999999999999 0.112 0  0.4399999999999999 0.112 0  0.48 0.112 0  0.52 0.112 0  0.5600000000000001 0.112 0  0.6000000000000001 0.112 0  0.6399999999999999 0.112 0  0.6799999999999999 0.112 0  0.72 0.112 0  0.76 0.112 0  0.8 0.112 0  0.8400000000000001 0.112 0  0.8799999999999999 0.112 0  0.9199999999999999 0.112 0  0.96 0.112 0  1 0.112 0  -1 0.128 0  -0.96 0.128 0  -0.92 0.128 0  -0.88 0.128 0  -0.84 0.128 0  -0.8 0.128 0  -0.76 0.128 0  -0.72 0.128 0  -0.6799999999999999 0.128 0  -0.64 0.128 0  -0.6 0.128 0  -0.5600000000000001 0.128 0  -0.52 0.128 0  -0.48 0.128 0  -0.4399999999999999 0.128 0  -0.4 0.128 0  -0.36 0.128 0  -0.32 0.128 0  -0.28 0.128 0  -0.24 0.128 0  -0.2 0.128 0  -0.16 0.128 0  -0.12 0.128 0  -0.07999999999999996 0.128 0  -0.04000000000000004 0.128 0  0 0.128 0  0.04000000000000004 0.128 0  0.08000000000000007 0.128 0  0.1200000000000001 0.128 0  0.1599
[...]
<PointData  Scalars="f_100"> 
<DataArray  type="Float64"  Name="f_100"  format="ascii">6.0000000000000002e-05  5.4028351770196900e-05  5.2286580792740379e-05  5.1067325685059126e-05  4.9698527001910052e-05  4.7963040774696507e-05  4.5831619221690466e-05  4.3380306523122641e-05  4.0748958327280985e-05  3.8104822508878247e-05  3.5607734843293271e-05  3.3382636973239494e-05  3.1504444010651307e-05  2.9996025605277991e-05  2.8835948951281020e-05  2.7970414312075660e-05  2.7322596993980449e-05  2.6781267729370676e-05  2.6088847757837791e-05  2.1465578187358301e-05  1.5755663143505573e-05  1.2970181755390467e-05  1.0857503262408312e-05  9.0634699267616081e-06  7.4656858437762065e-06  6.0248760058668474e-06  4.7396309205430784e-06  3.6229351219632483e-06  2.6896102741287006e-06  1.9582182666277833e-06  1.4905014905183944e-06  1.6146202310751015e-06  1.9555603455451911e-06  1.5710796930479277e-06  1.0914259638463084e-06  7.0384253242981422e-07  4.3285696053880423e-07  2.5667277999758432e-07  1.4750404749117771e-07  8.2382699900639966e-08  4.4800053265328939e-08  2.3754662918589240e-08  1.2296288095822130e-08  6.2205699177491719e-09  3.0786448847107761e-09  1.4920295473911777e-09  7.0870288802601566e-10  3.3008054680732549e-10  1.5007108413153486e-10  6.2029630623205755e-11  0.0000000000000000e+00  6.0000000000000002e-05  5.4302916732099936e-05  5.2553456875182438e-05  5.1329007161335770e-05  4.9955267971034189e-05  4.8213245817619400e-05  4.6073046860603103e-05  4.3610736093041308e-05  4.0966661584473600e-05  3.8308875293754157e-05  3.5798139765576030e-05  3.3560255819513445e-05  3.1670785244405625e-05  3.0152961299409939e-05  2.8985435379201378e-05  2.8114268129120942e-05  2.7462355158944469e-05  2.6918272407176062e-05  2.6211409253960213e-05  2.2021626729974052e-05  1.6542006927490576e-05  1.3627365292050430e-05  1.1410329168441544e-05  9.5305516141654915e-06  7.8572976612317728e-06  6.3478156528434102e-06  4.9998529459490175e-06  3.8268481542653961e-06  2.8444214785187374e-06  2.0715023215434206e-06  1.5689143611243263e-06  1.6364461145664165e-06  1.9671859598122576e-06  1.5819615754371509e-06  1.0992663989308685e-06  7.0902149429596395e-07  4.3610592430126822e-07  2.5863381190194047e-07  1.4864948414887722e-07  8.3032147231143065e-08  4.5158207347216351e-08  2.3947064942490840e-08  1.2397102970283035e-08  6.2721546406399372e-09  3.1044477963265117e-09  1.5046597067611418e-09  7.1475855599012950e-10  3.3292748057279486e-10  1.5138669066632138e-10  6.2640849874551897e-11  0.0000000000000000e+00  6.0000000000000002e-05  5.4573420165220447e-05  5.2819501248391979e-05  5.1591317434025769e-05  5.0213086542554537e-05  4.8464652800079986e-05  4.6315691531833038e-05  4.3842356259804865e-05  4.1185509544397987e-05  3.8514016036677951e-05  3.5989570176513741e-05  3.3738836333122576e-05  3.1838026935181661e-05  3.0310742082434387e-05  2.9135719650524819e-05  2.8258883041550949e-05  2.7602860849368194e-05  2.7056143292277363e-05  2.6338341603466675e-05  2.2530578635785384e-05  1.7321507209275457e-05  1.4282644796234413e-05  1.1967297102047516e-05  1.0004518724948254e-05  8.2568959106789523e-06  6.6788862586603279e-06  5.2677345474405203e-06  4.0375598194484033e-06  3.0049544057697743e-06  2.1893284089617128e-06  1.6503412774309918e-06  1.6651222255121731e-06  1.9813022052055464e-06  1.5936746175606668e-06  1.1073837844067501e-06  7.1430459356921622e-07  4.3940122440571366e-07  2.6061855503616165e-07  1.4980801832840743e-07  8.3689013471422311e-08  4.5520549869174170e-08  2.4141793282850925e-08  1.2499182358893339e-08  6.3244109325299409e-09  3.1305991351085392e-09  1.5174665568650642e-09  7.2090187356261408e-10  3.3581699362821017e-10  1.5272249941881785e-10  6.3259221566040332e-11  0.0000000000000000e+00  6.0000000000000002e-05  5.4839064853102307e-05  5.3084674580296498e-05  5.1854251952168420e-05  5.0471988201951487e-05  4.8717270572188598e-05  4.6559562909718186e-05  4.4075176252239658e-05  4.1405510231365677e-05  3.8720251160468151e-05  3.6182030835321106e-05  3.3918381825678073e-05  3.2006171336987754e-05  3.0469369594923039e-05  2.9286803189596769e-05  2.8404260517412125e-05  2.7744115394526126e-05  2.7194872334209656e-05  2.6469370295364552e-05  2.2998782588713301e-05  1.8074770725428608e-05  1.4932551564742761e-05  1.2526911456187595e-05  1.0484607352765697e-05  8.6641148959474946e-06  7.0179529841507440e-06  5.5432702618999297e-06  4.2551293012951846e-06  3.1712947882952873e-06  2.3117989075938904e-06  1.7350426154797764e-06  1.6998753177978870e-06  1.9979495973316572e-06  1.6062321553226076e-06  1.1157815908395902e-06  7.1969198958811162e-07  4.4274229206340577e-07  2.6262642588227933e-07  1.5097920745954957e-07  8.4352998770619267e-08  4.5886890344850423e-08  2.4338732444497841e-08  1.2602458881648662e-08  6.3773007976024655e-09  3.1570781284302215e-09  1.5304390619789811e-09  7.2712713177317288e-10  3.3874620011607745e-10  1.5407705730702732e-10  6.3883876589377888e-11  0.0000000000000000e+00  6.0000000000000002e-05  5.5099291788075149e-05  5.3348953560474950e-05  5.2117809910695926e-05  5.0731979216659668e-05  4.8971107791690161e-05  4.6804670193325574e-05  4.4309204832737942e-05  4.1626671359276478e-05  3.8927587001751279e-05  3.6375526646438038e-05  3.4098895945970074e-05  3.2175221166204121e-05  3.0628845991651142e-05  2.9438687923096504e-05  2.8550402470408478e-05  2.7886120491164237e-05  2.7334454343666327e-05  2.6604218302158768e-05  2.3431891472836292e-05  1.8792452795274544e-05  1.5574581838544647e-05  1.3087870095858194e-05  1.0970136458848797e-05  9.0786371212584815e-06  7.3649169545226836e-06  5.8264875137689068e-06  4.4796488552507219e-06  3.3435607017033462e-06  2.4390412969357446e-06  1.8232509851264078e-06  1.7401438164300373e-06  2.0171609792067183e-06  1.6196443145780682e-06  1.1244622841584464e-06  7.2518372994826621e-07  4.4612865897699474e-07  2.6465695887463142e-07  1.5216270036894093e-07  8.5023865322150248e-08  4.6257077589532307e-08  2.4537790670937448e-08  1.2706878958345498e-08  6.4307939983164653e-09  3.1838682348196976e-09  1.5435684299000314e-09  7.3342978052393834e-10  3.4171279932248378e-10  1.5544920620975262e-10  6.4514158448711544e-11  0.0000000000000000e+00  6.0000000000000002e-05  5.5353736783376331e-05  5.3612328825138580e-05  5.2381994092248628e-05  5.0993066662277408e-05  4.9226173014012824e-05  4.7051022212755209e-05  4.4544450391840575e-05  4.1849000395709885e-05  3.9136029834442221e-05  3.6570062641366294e-05  3.4280382626943215e-05  3.2345179525335301e-05  3.0789173855090710e-05  2.9591376194569286e-05  2.8697311182496173e-05  2.8028878125939263e-05  2.7474886167035699e-05  2.6742613456891438e-05  2.3834863594395969e-05  1.9471048740749667e-05  1.6206724740548526e-05  1.3649009354745713e-05  1.1460489414690971e-05  9.5001847036435140e-06  7.7197100860566016e-06  6.1174417102920840e-06  4.7112377945542471e-06  3.5218956573090958e-06  2.5712029119013825e-06  1.9151789434382102e-06  1.7855225645367457e-06  2.0389612917348483e-06  1.6339180776633894e-06  1.1334273512212825e-06  7.3077972832034564e-07  4.4955992781777480e-07  2.6670978202496888e-07  1.5335821988907547e-07  8.5701425853058687e-08  4.6630992482371559e-08  2.4738895576888505e-08  1.2812400266065295e-08  6.4848666227005511e-09  3.2109563605721387e-09  1.5568476954653017e-09  7.3980621290128391e-10  3.4471496651083922e-10  1.5683802797385874e-10  6.5149582558310266e-11  0.0000000000000000e+00  6.0000000000000002e-05  5.5602194467808536e-05  5.3874803501722812e-05  5.2646810739659201e-05  5.1255258443987588e-05  4.9482474766405367e-05  4.7298627516614558e-05  4.4780921025941029e-05  4.2072504614408438e-05  3.9345585888729734e-05  3.6765643963382074e-05  3.4462846041788876e-05  3.2516049840104136e-05  3.0950356124186171e-05  2.9744870694170383e-05  2.8844989240397806e-05  2.8172390513500037e-05  2.7616166025937587e-05  2.6884293634819668e-05  2.4212007165072011e-05  2.0110373600755793e-05  1.6827328187338501e-05  1.4209291675095696e-05  1.1955110004625333e-05  9.9285182696340101e-06  8.0822946580105290e-06  6.4162152424965982e-06  4.9500404129817956e-06  3.7064657266604379e-06  2.7084487361528996e-06  2.0110261387866755e-06  1.8357231224502432e-06  2.0633677192585550e-06  1.6490573322196456e-06  1.1426773208318810e-06  7.3647974614243840e-07  4.5303574800543712e-07  2.6878459696328679e-07  1.5456554863417863e-07  8.6385534217952000e-08  4.7008542056665406e-08  2.4941990584830268e-08  1.2918989666156583e-08  6.5394999169828406e-09  3.2383322218493611e-09  1.5702713816239042e-09  7.4625358975350333e-10  3.4775126418437480e-10  1.5824279973612636e-10  6.5789803067988517e-11  0.0000000000000000e+00  6.0000000000000002e-05  5.5844588456745120e-05  5.4136392190939634e-05  5.2912269448811134e-05  5.1518563313050222e-05  4.9740021608663767e-05  4.7547494443905887e-05  4.5018624601097624e-05  4.2297191138250659e-05  3.9556261366424386e-05  3.6962275854678966e-05  3.4646290567591520e-05  3.2687835807556290e-05  3.1112396035715605e-05  2.9899174400917203e-05  2.8993439483546670e-05  2.8316660047063160e-05  2.7758292995431835e-05  2.7029010210117862e-05  2.4567044401460055e-05  2.0712060089167587e-05  1.7435084850033312e-05  1.4767808857767609e-05  1.2453505521100323e-05  1.0363439810506018e-05  8.4526655050098748e-06  6.7229187084256105e-06  5.1962261669472723e-06  3.8974589678095766e-06  2.8509609363880699e-06  2.1109855628947829e-06  1.8905451663649417e-06  2.0903900341039013e-06  1.6650629060655428e-06  1.1522117817265635e-06  7.4228337776435832e-07  4.5655579591011790e-07  2.7088116261373602e-07  1.5578451737128462e-07  8.7076077713976796e-08  4.7389654674797451e-08  2.5147032017603959e-08  1.3026621514020190e-08  6.5946793344108880e-09  3.2659878252427237e-09  1.5838352236181260e-09  7.5276969701570976e-10  3.5082056995353482e-10  1.5966295762155495e-10  6.6434585854688285e-11  0.0000000000000000e+00  6.0000000000000002e-05  5.6080946688715902e-05  5.4397120249481665e-05  5.3178383074285243e-05  5.1782990878326757e-05  4.9998822182527848e-05  4.7797631183001092e-05  4.5257568805410044e-05  4.2523066974431242e-05  3.9768062453363854e-05  3.7159963645562734e-05  3.4830720755233258e-05  3.2860541353250653e-05  3.1275297076015563e-05  3.0054290535225819e-05  2.9142664961417275e-05  2.8461689258984226e-05  2.7901266597870129e-05  2.7176530177902325e-05  2.4903181751257685e-05  2.1278670370696615e-05  1.8029044628784934e-05  1.5323790474061098e-05  1.2955253300434534e-05  1.0804797643803680e-05  8.8308536913978838e-06  7.0376934362478714e-06  5.4499911850656662e-06  4.0950861916157196e-06  2.9989394216729829e-06  2.2152488914894076e-06  1.9498558400493766e-06  2.1200310230709742e-06  1.6819325917163418e-06  1.1620293987645253e-06  7.4819003867783426e-07  4.6011975874913451e-07  2.7299928186480651e-07  1.5701499551846332e-07  8.7772970803244638e-08  4.7774276089034800e-08  2.5353986726316047e-08  1.3135276280995524e-08  6.6503937602093301e-09  3.2939170447896510e-09  1.5975359445168970e-09  7.5935282966576771e-10  3.5392201789941961e-10  1.6109806724393111e-10  6.7083786564016168e-11  0.0000000000000000e+00  6.0000000000000002e-05  5.6311381080672216e-05  5.4657023271754839e-05  5.3445167642197535e-05  5.2048551612865391e-05  5.0258885251481439e-05  4.8049045819911274e-05  4.5497761191979662e-05  4.2750139043256159e-05  3.9980995329437997e-05  3.7358712745377174e-05  3.5016141304482429e-05  3.3034170595946680e-05  3.1439062941239265e-05  3.0210222519902786e-05  2.9292668898564491e-05  2.8607480789342802e-05  2.8045086492421735e-05  2.7326637259412410e-05  2.5223178874315607e-05  2.1813177436014489e-05  1.8608619308659597e-05  1.5876613323956071e-05  1.3460008799757431e-05  1.1252492492223762e-05  9.2169310512720643e-06  7.3607147988416265e-06  5.7115605862129496e-06  4.2995825334951911e-06  3.1526030308938365e-06  2.3240110206170104e-06  2.0135748268339789e-06  2.1522869194335811e-06  1.6996611638180549e-06  1.1721279283233801e-06  7.5419895651549476e-07  4.6372732157678254e-07  2.7513879070768392e-07  1.5825688338694695e-07  8.8476149986305534e-08  4.8162366225793965e-08  2.5562830154990338e-08  1.3244939430686029e-08  6.7066348800323112e-09  3.3221152775173437e-09  1.6113710725318026e-09  7.6600169733575978e-10  3.5705495090566134e-10  1.6254779973004464e-10  6.7737332786647109e-11  0.0000000000000000e+00  6.0000000000000002e-05  5.6536070792434159e-05  5.4916146696157968e-05  5.3712642266094302e-05  5.2315256855624840e-05  5.0520219732400113e-05  4.8301746377672426e-05  4.5739209214114380e-05  4.2978414201705643e-05  4.0195066176689458e-05  3.7558528634889195e-05  3.5202557043375544e-05  3.3208727818476593e-05  3.1603697504639877e-05  3.0366973948087554e-05  2.9443454665993561e-05  2.8754037360970836e-05  2.8189752243101045e-05  2.7479132245255364e-05  2.5529412647115089e-05  2.2318668555105576e-05  1.9173571346866636e-05  1.6425810168973368e-05  1.3967514188712543e-05  1.1706484141286666e-05  9.6110152554562390e-06  7.6921960371219369e-06  5.9811913160959856e-06  4.5112095333794986e-06  3.3121911269085551e-06  2.4374739452805155e-06  2.0816635515140604e-06  2.1871477917790518e-06  1.7182403923800979e-06  1.1825042337119732e-06  7.6030916454374470e-07  4.6737815686949481e-07  2.7729954941077348e-07  1.5951010585330990e-07  8.9185569617004554e-08  4.8553896560721437e-08  2.5773544761528118e-08  1.3355600502693926e-08  6.7633966653046874e-09  3.3505791629119746e-09  1.6253387923255563e-09  7.7271534753115235e-10  3.6021888190353997e-10  1.6401191222894044e-10  6.8395209619345148e-11  0.0000000000000000e+00  6.0000000000000002e-05  5.6755248506031299e-05  5.5174545482219680e-05  5.3980829062847930e-05  5.2583118808448120e-05  5.0782834720252001e-05  4.8555740848351563e-05  4.5981920254144127e-05  4.3207899262709946e-05  4.0410281185858419e-05  3.7759416859902719e-05  3.5389972911153885e-05  3.3384217443718898e-05  3.1769204789636279e-05  3.0524548556907581e-05  2.9595025757729473e-05  2.8901361759680341e-05  2.8335263150652431e-05  2.7633832778453159e-05  2.5823934585416791e-05  2.2798181694727099e-05  1.9723989011661061e-05  1.6971076885321457e-05  1.4477606889437398e-05  1.2166798374762102e-05  1.0013275214804128e-05  8.0323924326907850e-06  6.2591753394105524e-06  4.7302575584815152e-06  3.4779654730619160e-06  2.5558501267070795e-06  2.1541173754001387e-06  2.2245978598356956e-06  1.7376590543087653e-06  1.1931543012575224e-06  7.6651949741076904e-07  4.7107191629434640e-07  2.7948143537552748e-07  1.6077460720463611e-07  8.9901198487248314e-08  4.8948847976211584e-08  2.5986118729311633e-08  1.3467252365401359e-08  6.8206749537642013e-09  3.3793063544185102e-09  1.6394378239708645e-09  7.7949310316419024e-10  3.6341346235909977e-10  1.6549023206245451e-10  6.9057447995450447e-11  0.0000000000000000e+00  6.0000000000000002e-05  5.6969189222236421e-05  5.5432283820702211e-05  5.4249753066295529e-05  5.2852150528421584e-05  5.1046739506858431e-05  4.8811037218915698e-05  4.6225901646971256e-05  4.3438601010912092e-05  4.0626646561670408e-05  3.7961383025906671e-05  3.5578393944142184e-05  3.3560644014778250e-05  3.1935588947636995e-05  3.0682950205827557e-05  2.9747385771655839e-05  2.9049456818704106e-05  2.8481618135906194e-05  2.7790572734978364e-05  2.6108521285869933e-05  2.3254621089229002e-05  2.0260253012406503e-05  1.7512277635629691e-05  1.4990227753843243e-05  1.2633534014167649e-05  1.0423936708900944e-05  8.3816057379627778e-06  6.5458430952125352e-06  4.9570484766624190e-06  3.6502123218455383e-06  2.6793654780212102e-06  2.2309599692398749e-06  2.2646157200337409e-06  1.7579029454032945e-06  1.2040732575967912e-06  7.7282858894164884e-07  4.7480822431945061e-07  2.8168433738194158e-07  1.6205034694605749e-07  9.0623017041413227e-08  4.9347209012800708e-08  2.6200544915837838e-08  1.3579890606499461e-08  6.8784671075226754e-09  3.4082953332797029e-09  1.6536673243956305e-09  7.8633451172140043e-10  3.6663845664302578e-10  1.6698264383146198e-10  6.9724115280395238e-11  0.0000000000000000e+00  6.0000000000000002e-05  5.7178201157556284e-05  5.5689434850670773e-05  5.4519442136959231e-05  5.3122365915772153e-05  5.1311943594557793e-05  4.9067643491991378e-05  4.6471160699281121e-05  4.3670526215552700e-05  4.0844168527108695e-05  3.8164432793591929e-05  3.5767825264061290e-05  3.3738012178632310e-05  3.2102854239777953e-05  3.0842182858854171e-05  2.9900538393859235e-05  2.9198325406566717e-05  2.8628815664216756e-05  2.7949201323508519e-05  2.6384718139320258e-05  2.3690719506553328e-05  2.0782999624869790e-05  1.8049447959063889e-05  1.5505428716479883e-05  1.3106869958918370e-05  1.0843288172653474e-05  8.7401888091073252e-06  6.8415671623104333e-06  5.1919385287920743e-06  3.8292446759738508e-06  2.8082620769616801e-06  2.3122392773872509e-06  2.3071744718437244e-06  1.7789548946918365e-06  1.2152553885956757e-06  7.7923487179855414e-07  4.7858667338284428e-07  2.8390815098387791e-07  1.6333729639802482e-07  9.1351015105613888e-08  4.9748974442047274e-08  2.6416819994597362e-08  1.3693513035723608e-08  6.9367717342265007e-09  3.4375452568159357e-09  1.6680268071085432e-09  7.9323930388362210e-10  3.6989372117751686e-10  1.6848907892063295e-10  7.0395307718516373e-11  0.0000000000000000e+00  6.0000000000000002e-05  5.7382618392794308e-05  5.5946080366371716e-05  5.4789926866638351e-05  5.3393779697468531e-05  5.1578456705480766e-05  4.9325567702365341e-05  4.6717704705175338e-05  4.3903681640997339e-05  4.1062853326867054e-05  3.8368571875097945e-05  3.5958272068353053e-05  3.3916326672634261e-05  3.2271005021877536e-05  3.1002250569905949e-05  3.0054487385850216e-05  2.9347970417763208e-05  2.8776853702346080e-05  2.8109581997125611e-05  2.6653876891408380e-05  2.4109027673250690e-05  2.1293084158944409e-05  1.8582795909133599e-05  1.6023379853319940e-05  1.3587072164428268e-05  1.1271686597511712e-05  9.1085504077641623e-06  7.1467661032611406e-06  5.4353213709905141e-06  4.0154046995707705e-06  2.9428006938235971e-06  2.3980246497331867e-06  2.3522417412825268e-06  1.8007947827607909e-06  1.2266941602336501e-06  7.8573657884574998e-07  4.8240682038415262e-07  2.8615277485677129e-07  1.6463543594171398e-07  9.2085190037858212e-08  5.0154144101699851e-08  2.6634943754424127e-08  1.3808119278942040e-08  6.9955884595522244e-09  3.4670558347064547e-09  1.6825160767780802e-09  8.0020735982210829e-10  3.7317918746024259e-10  1.7000950694863239e-10  7.1071144391714747e-11  0.0000000000000000e+00  6.0000000000000002e-05  5.7582794981140168e-05  5.6202310503246888e-05  5.5061240477010653e-05  5.3666407406702447e-05  5.1846288787033977e-05  4.9584817929931411e-05  4.6965540958856406e-05  4.4138074055334195e-05  4.1282707230141497e-05  3.8573806030870803e-05  3.6149739622167049e-05  3.4095592313365494e-05  3.2440045732034080e-05  3.1163157470779126e-05  3.0209236574143808e-05  2.9498394765748016e-05  2.8925729700677681e-05  2.8271591246530228e-05  2.6917187757535366e-05  2.4511919145876394e-05  2.1791547328093335e-05  1.9112701536370400e-05  1.6544375837158060e-05  1.4074500520880235e-05  1.1709563518192957e-05  9.4871601490721051e-06  7.4619084676646837e-06  5.6876312700819586e-06  4.2090662673049376e-06  3.0832632051291882e-06  2.4884048346543369e-06  2.3997796013200339e-06  1.8233995655649322e-06  1.2383822417152000e-06  7.9233174607721275e-07  4.8626818430243534e-07  2.8841810793495253e-07  1.6594475279632309e-07  9.2825545222094703e-08  5.0562721944710194e-08  2.6854918527067851e-08  1.3923710446562847e-08  7.0549177414336750e-09  3.4968272280186606e-09  1.6971351758709839e-09  8.0723868172325866e-10  3.7649484823256500e-10  1.7154392879513771e-10  7.1751762411301634e-11  0.0000000000000000e+00  6.0000000000000002e-05  5.7779100271331504e-05  5.6458223397081955e-05  5.5333418711652339e-05  5.3940265358434623e-05  5.2115450014097545e-05  4.9845402309669663e-05  4.7214676764882821e-05  4.4373710237393234e-05  4.1503736532889439e-05  3.8780141067032992e-05  3.6342233251718225e-05  3.4275813987419853e-05  3.260998088039092