<?xml version="1.0"?>
<VTKFile type="UnstructuredGrid"  version="0.1"  >
<UnstructuredGrid>
<Piece  NumberOfPoints="2601" NumberOfCells="5000">
<Points>
<DataArray  type="Float64"  NumberOfComponents="3"  format="ascii">-1 0 0  -0.96 0 0  -0.92 0 0  -0.88 0 0  -0.84 0 0  -0.8 0 0  -0.76 0 0  -0.72 0 0  -0.6799999999999999 0 0  -0.64 0 0  -0.6 0 0  -0.5600000000000001 0 0  -0.52 0 0  -0.48 0 0  -0.4399999999999999 0 0  -0.4 0 0  -0.36 0 0  -0.32 0 0  -0.28 0 0  -0.24 0 0  -0.2 0 0  -0.16 0 0  -0.12 0 0  -0.07999999999999996 0 0  -0.04000000000000004 0 0  0 0 0  0.04000000000000004 0 0  0.08000000000000007 0 0  0.1200000000000001 0 0  0.1599999999999999 0 0  0.2 0 0  0.24 0 0  0.28 0 0  0.3200000000000001 0 0  0.3600000000000001 0 0  0.3999999999999999 0 0  0.4399999999999999 0 0  0.48 0 0  0.52 0 0  0.5600000000000001 0 0  0.6000000000000001 0 0  0.6399999999999999 0 0  0.6799999999999999 0 0  0.72 0 0  0.76 0 0  0.8 0 0  0.8400000000000001 0 0  0.8799999999999999 0 0  0.9199999999999999 0 0  0.96 0 0  1 0 0  -1 0.016 0  -0.96 0.016 0  -0.92 0.016 0  -0.88 0.016 0  -0.84 0.016 0  -0.8 0.016 0  -0.76 0.016 0  -0.72 0.016 0  -0.6799999999999999 0.016 0  -0.64 0.016 0  -0.6 0.016 0  -0.5600000000000001 0.016 0  -0.52 0.016 0  -0.48 0.016 0  -0.4399999999999999 0.016 0  -0.4 0.016 0  -0.36 0.016 0  -0.32 0.016 0  -0.28 0.016 0  -0.24 0.016 0  -0.2 0.016 0  -0.16 0.016 0  -0.12 0.016 0  -0.07999999999999996 0.016 0  -0.04000000000000004 0.016 0  0 0.016 0  0.04000000000000004 0.016 0  0.08000000000000007 0.016 0  0.1200000000000001 0.016 0  0.1599999999999999 0.016 0  0.2 0.016 0  0.24 0.016 0  0.28 0.016 0  0.3200000000000001 0.016 0  0.3600000000000001 0.016 0  0.3999999999999999 0.016 0  0.4399999999999999 0.016 0  0.48 0.016 0  0.52 0.016 0  0.5600000000000001 0.016 0  0.6000000000000001 0.016 0  0.6399999999999999 0.016 0  0.6799999999999999 0.016 0  0.72 0.016 0  0.76 0.016 0  0.8 0.016 0  0.8400000000000001 0.016 0  0.8799999999999999 0.016 0  0.9199999999999999 0.016 0  0.96 0.016 0  1 0.016 0  -1 0.032 0  -0.96 0.032 0  -0.92 0.032 0  -0.88 0.032 0  -0.84 0.032 0  -0.8 0.032 0  -0.76 0.032 0  -0.72 0.032 0  -0.6799999999999999 0.032 0  -0.64 0.032 0  -0.6 0.032 0  -0.5600000000000001 0.032 0  -0.52 0.032 0  -0.48 0.032 0  -0.4399999999999999 0.032 0  -0.4 0.032 0  -0.36 0.032 0  -0.32 0.032 0  -0.28 0.032 0  -0.24 0.032 0  -0.2 0.032 0  -0.16 0.032 0  -0.12 0.032 0  -0.07999999999999996 0.032 0  -0.04000000000000004 0.032 0  0 0.032 0  0.04000000000000004 0.032 0  0.08000000000000007 0.032 0  0.1200000000000001 0.032 0  0.1599999999999999 0.032 0  0.2 0.032 0  0.24 0.032 0  0.28 0.032 0  0.3200000000000001 0.032 0  0.3600000000000001 0.032 0  0.3999999999999999 0.032 0  0.4399999999999999 0.032 0  0.48 0.032 0  0.52 0.032 0  0.5600000000000001 0.032 0  0.6000000000000001 0.032 0  0.6399999999999999 0.032 0  0.6799999999999999 0.032 0  0.72 0.032 0  0.76 0.032 0  0.8 0.032 0  0.8400000000000001 0.032 0  0.8799999999999999 0.032 0  0.9199999999999999 0.032 0  0.96 0.032 0  1 0.032 0  -1 0.04800000000000001 0  -0.96 0.04800000000000001 0  -0.92 0.04800000000000001 0  -0.88 0.04800000000000001 0  -0.84 0.04800000000000001 0  -0.8 0.04800000000000001 0  -0.76 0.04800000000000001 0  -0.72 0.04800000000000001 0  -0.6799999999999999 0.04800000000000001 0  -0.64 0.04800000000000001 0  -0.6 0.04800000000000001 0  -0.5600000000000001 0.04800000000000001 0  -0.52 0.04800000000000001 0  -0.48 0.04800000000000001 0  -0.4399999999999999 0.04800000000000001 0  -0.4 0.04800000000000001 0  -0.36 0.04800000000000001 0  -0.32 0.04800000000000001 0  -0.28 0.04800000000000001 0  -0.24 0.04800000000000001 0  -0.2 0.04800000000000001 0  -0.16 0.04800000000000001 0  -0.12 0.04800000000000001 0  -0.07999999999999996 0.04800000000000001 0  -0.04000000000000004 0.04800000000000001 0  0 0.04800000000000001 0  0.04000000000000004 0.04800000000000001 0  0.08000000000000007 0.04800000000000001 0  0.1200000000000001 0.04800000000000001 0  0.1599999999999999 0.04800000000000001 0  0.2 0.04800000000000001 0  0.24 0.04800000000000001 0  0.28 0.04800000000000001 0  0.3200000000000001 0.04800000000000001 0  0.3600000000000001 0.04800000000000001 0  0.3999999999999999 0.04800000000000001 0  0.4399999999999999 0.04800000000000001 0  0.48 0.04800000000000001 0  0.52 0.04800000000000001 0  0.5600000000000001 0.04800000000000001 0  0.6000000000000001 0.04800000000000001 0  0.6399999999999999 0.04800000000000001 0  0.6799999999999999 0.04800000000000001 0  0.72 0.04800000000000001 0  0.76 0.04800000000000001 0  0.8 0.04800000000000001 0  0.8400000000000001 0.04800000000000001 0  0.8799999999999999 0.04800000000000001 0  0.9199999999999999 0.04800000000000001 0  0.96 0.04800000000000001 0  1 0.04800000000000001 0  -1 0.064 0  -0.96 0.064 0  -0.92 0.064 0  -0.88 0.064 0  -0.84 0.064 0  -0.8 0.064 0  -0.76 0.064 0  -0.72 0.064 0  -0.6799999999999999 0.064 0  -0.64 0.064 0  -0.6 0.064 0  -0.5600000000000001 0.064 0  -0.52 0.064 0  -0.48 0.064 0  -0.4399999999999999 0.064 0  -0.4 0.064 0  -0.36 0.064 0  -0.32 0.064 0  -0.28 0.064 0  -0.24 0.064 0  -0.2 0.064 0  -0.16 0.064 0  -0.12 0.064 0  -0.07999999999999996 0.064 0  -0.04000000000000004 0.064 0  0 0.064 0  0.04000000000000004 0.064 0  0.08000000000000007 0.064 0  0.1200000000000001 0.064 0  0.1599999999999999 0.064 0  0.2 0.064 0  0.24 0.064 0  0.28 0.064 0  0.3200000000000001 0.064 0  0.3600000000000001 0.064 0  0.3999999999999999 0.064 0  0.4399999999999999 0.064 0  0.48 0.064 0  0.52 0.064 0  0.5600000000000001 0.064 0  0.6000000000000001 0.064 0  0.6399999999999999 0.064 0  0.6799999999999999 0.064 0  0.72 0.064 0  0.76 0.064 0  0.8 0.064 0  0.8400000000000001 0.064 0  0.8799999999999999 0.064 0  0.9199999999999999 0.064 0  0.96 0.064 0  1 0.064 0  -1 0.08 0  -0.96 0.08 0  -0.92 0.08 0  -0.88 0.08 0  -0.84 0.08 0  -0.8 0.08 0  -0.76 0.08 0  -0.72 0.08 0  -0.6799999999999999 0.08 0  -0.64 0.08 0  -0.6 0.08 0  -0.5600000000000001 0.08 0  -0.52 0.08 0  -0.48 0.08 0  -0.4399999999999999 0.08 0  -0.4 0.08 0  -0.36 0.08 0  -0.32 0.08 0  -0.28 0.08 0  -0.24 0.08 0  -0.2 0.08 0  -0.16 0.08 0  -0.12 0.08 0  -0.07999999999999996 0.08 0  -0.04000000000000004 0.08 0  0 0.08 0  0.04000000000000004 0.08 0  0.08000000000000007 0.08 0  0.1200000000000001 0.08 0  0.1599999999999999 0.08 0  0.2 0.08 0  0.24 0.08 0  0.28 0.08 0  0.3200000000000001 0.08 0  0.3600000000000001 0.08 0  0.3999999999999999 0.08 0  0.4399999999999999 0.08 0  0.48 0.08 0  0.52 0.08 0  0.5600000000000001 0.08 0  0.6000000000000001 0.08 0  0.6399999999999999 0.08 0  0.6799999999999999 0.08 0  0.72 0.08 0  0.76 0.08 0  0.8 0.08 0  0.8400000000000001 0.08 0  0.8799999999999999 0.08 0  0.9199999999999999 0.08 0  0.96 0.08 0  1 0.08 0  -1 0.09600000000000002 0  -0.96 0.09600000000000002 0  -0.92 0.09600000000000002 0  -0.88 0.09600000000000002 0  -0.84 0.09600000000000002 0  -0.8 0.09600000000000002 0  -0.76 0.09600000000000002 0  -0.72 0.09600000000000002 0  -0.6799999999999999 0.09600000000000002 0  -0.64 0.09600000000000002 0  -0.6 0.09600000000000002 0  -0.5600000000000001 0.09600000000000002 0  -0.52 0.09600000000000002 0  -0.48 0.09600000000000002 0  -0.4399999999999999 0.09600000000000002 0  -0.4 0.09600000000000002 0  -0.36 0.09600000000000002 0  -0.32 0.09600000000000002 0  -0.28 0.09600000000000002 0  -0.24 0.09600000000000002 0  -0.2 0.09600000000000002 0  -0.16 0.09600000000000002 0  -0.12 0.09600000000000002 0  -0.07999999999999996 0.09600000000000002 0  -0.04000000000000004 0.09600000000000002 0  0 0.09600000000000002 0  0.04000000000000004 0.09600000000000002 0  0.08000000000000007 0.09600000000000002 0  0.1200000000000001 0.09600000000000002 0  0.1599999999999999 0.09600000000000002 0  0.2 0.09600000000000002 0  0.24 0.09600000000000002 0  0.28 0.09600000000000002 0  0.3200000000000001 0.09600000000000002 0  0.3600000000000001 0.09600000000000002 0  0.3999999999999999 0.09600000000000002 0  0.4399999999999999 0.09600000000000002 0  0.48 0.09600000000000002 0  0.52 0.09600000000000002 0  0.5600000000000001 0.09600000000000002 0  0.6000000000000001 0.09600000000000002 0  0.6399999999999999 0.09600000000000002 0  0.6799999999999999 0.09600000000000002 0  0.72 0.09600000000000002 0  0.76 0.09600000000000002 0  0.8 0.09600000000000002 0  0.8400000000000001 0.09600000000000002 0  0.8799999999999999 0.09600000000000002 0  0.9199999999999999 0.09600000000000002 0  0.96 0.09600000000000002 0  1 0.09600000000000002 0  -1 0.112 0  -0.96 0.112 0  -0.92 0.112 0  -0.88 0.112 0  -0.84 0.112 0  -0.8 0.112 0  -0.76 0.112 0  -0.72 0.112 0  -0.6799999999999999 0.112 0  -0.64 0.112 0  -0.6 0.112 0  -0.5600000000000001 0.112 0  -0.52 0.112 0  -0.48 0.112 0  -0.4399999999999999 0.112 0  -0.4 0.112 0  -0.36 0.112 0  -0.32 0.112 0  -0.28 0.112 0  -0.24 0.112 0  -0.2 0.112 0  -0.16 0.112 0  -0.12 0.112 0  -0.07999999999999996 0.112 0  -0.04000000000000004 0.112 0  0 0.112 0  0.04000000000000004 0.112 0  0.08000000000000007 0.112 0  0.1200000000000001 0.112 0  0.1599999999999999 0.112 0  0.2 0.112 0  0.24 0.112 0  0.28 0.112 0  0.3200000000000001 0.112 0  0.3600000000000001 0.112 0  0.3999999999999999 0.112 0  0.4399999999999999 0.112 0  0.48 0.112 0  0.52 0.112 0  0.5600000000000001 0.112 0  0.6000000000000001 0.112 0  0.6399999999999999 0.112 0  0.6799999999999999 0.112 0  0.72 0.112 0  0.76 0.112 0  0.8 0.112 0  0.8400000000000001 0.112 0  0.8799999999999999 0.112 0  0.9199999999999999 0.112 0  0.96 0.112 0  1 0.112 0  -1 0.128 0  -0.96 0.128 0  -0.92 0.128 0  -0.88 0.128 0  -0.84 0.128 0  -0.8 0.128 0  -0.76 0.128 0  -0.72 0.128 0  -0.6799999999999999 0.128 0  -0.64 0.128 0  -0.6 0.128 0  -0.5600000000000001 0.128 0  -0.52 0.128 0  -0.48 0.128 0  -0.4399999999999999 0.128 0  -0.4 0.128 0  -0.36 0.128 0  -0.32 0.128 0  -0.28 0.128 0  -0.24 0.128 0  -0.2 0.128 0  -0.16 0.128 0  -0.12 0.128 0  -0.07999999999999996 0.128 0  -0.04000000000000004 0.128 0  0 0.128 0  0.04000000000000004 0.128 0  0.08000000000000007 0.128 0  0.1200000000000001 0.128 0  0.1599
[...]
<PointData  Scalars="f_100"> 
<DataArray  type="Float64"  Name="f_100"  format="ascii">6.0000000000000002e-05  5.3970401342531190e-05  5.2124420761116559e-05  5.0743641168963387e-05  4.9159533553090667e-05  4.7175361176270689e-05  4.4796561873800541e-05  4.2139483474521815e-05  3.9378362171743802e-05  3.6699263813255985e-05  3.4261257892512896e-05  3.2171391247138434e-05  3.0476525347617765e-05  2.9169474095374858e-05  2.8203132514025829e-05  2.7505489955641358e-05  2.6988769630299866e-05  2.6535828810649353e-05  2.5886519044912776e-05  2.1287682525912271e-05  1.5572159210002342e-05  1.2736276822526054e-05  1.0554929141449741e-05  8.6890003342654600e-06  7.0304255581731329e-06  5.5517811836337280e-06  4.2584075935632529e-06  3.1634339875092546e-06  2.2751585951304597e-06  1.5985116428012446e-06  1.1672768514319925e-06  1.2212180265019469e-06  1.4518444670253687e-06  1.1333168306782585e-06  7.6135017333286459e-07  4.7350907615809631e-07  2.8041237412533138e-07  1.5997787101918894e-07  8.8412224189896571e-08  4.7477018697032010e-08  2.4822704007799438e-08  1.2655468949711360e-08  6.2999308906844785e-09  3.0656789926430856e-09  1.4598746593400974e-09  6.8098161810519168e-10  3.1144645229619010e-10  1.3973332644083524e-10  6.1264128858581612e-11  2.4540743243794873e-11  0.0000000000000000e+00  6.0000000000000002e-05  5.4245069105958965e-05  5.2391158104805059e-05  5.1004672097449609e-05  4.9414779311437564e-05  4.7422910550160778e-05  4.5033977515246774e-05  4.2364553446456608e-05  3.9589600194876400e-05  3.6896178952719431e-05  3.4444380809540237e-05  3.2342092624840337e-05  3.0636710200602316e-05  2.9321249738875219e-05  2.8348527206888758e-05  2.7646260762634094e-05  2.7126307274536399e-05  2.6671280766160679e-05  2.6008065674092675e-05  2.1839871845716585e-05  1.6352447760097038e-05  1.3386093749207690e-05  1.1097798166256571e-05  9.1427571437149373e-06  7.4052279714313437e-06  5.8550015211761572e-06  4.4971484252226091e-06  3.3455662720431096e-06  2.4093552368821022e-06  1.6935850925392956e-06  1.2308806900917953e-06  1.2382522583655556e-06  1.4607123618931402e-06  1.1413718187629258e-06  7.6695659987556010e-07  4.7707797409746447e-07  2.8256699974567729e-07  1.6122837597317511e-07  8.9114235554934779e-08  4.7859487011576159e-08  2.5025369979641837e-08  1.2760088967391577e-08  6.3526173393505247e-09  3.0915951232686862e-09  1.4723405095486294e-09  6.8685129344308514e-10  3.1415465351011309e-10  1.4095899617074007e-10  6.1809506336116315e-11  2.4784586707838996e-11  0.0000000000000000e+00  6.0000000000000002e-05  5.4515671383102415e-05  5.2657060938964711e-05  5.1266328391078226e-05  4.9671096979621395e-05  4.7671652620063417e-05  4.5272596325082544e-05  4.2590794827302801e-05  3.9801958312910892e-05  3.7094152714908151e-05  3.4628496624620789e-05  3.2513721839203724e-05  3.0797762603058444e-05  2.9473840382416848e-05  2.8494693794092230e-05  2.7787771457393627e-05  2.7264575764798633e-05  2.6807584854674774e-05  2.6133942810323192e-05  2.2345256359503579e-05  1.7125852024018595e-05  1.4033918719468868e-05  1.1644626932391849e-05  9.6031088006356349e-06  7.7876040590407027e-06  6.1658169806695114e-06  4.7429080395318825e-06  3.5337883259228609e-06  2.5485477342789131e-06  1.7925211389594177e-06  1.2970116438040816e-06  1.2607749014187138e-06  1.4715371652747005e-06  1.1500711185718170e-06  7.7277344650497432e-07  4.8072387283218234e-07  2.8475470411033803e-07  1.6249513763226162e-07  8.9824857357921299e-08  4.8246632903226420e-08  2.5230570058247261e-08  1.2866060266330222e-08  6.4060092426556727e-09  3.1178712048213377e-09  1.4849858352978942e-09  6.9280846436329416e-10  3.1690459413793471e-10  1.4220417158455215e-10  6.2363796695033378e-11  2.5031575375427839e-11  0.0000000000000000e+00  6.0000000000000002e-05  5.4781410685013079e-05  5.2922090269032279e-05  5.1528605986469133e-05  4.9928492561198379e-05  4.7921596620550562e-05  4.5512428070040658e-05  4.2818216557751138e-05  4.0015443901820760e-05  3.7293190635614672e-05  3.4813609146317392e-05  3.2686281354749942e-05  3.0959684177678345e-05  2.9627247290654001e-05  2.8641633557134478e-05  2.7930023541417281e-05  2.7403576582186748e-05  2.6944733325604686e-05  2.6263878444508478e-05  2.2810140178378606e-05  1.7873119576288365e-05  1.4676312024718083e-05  1.2193932462445657e-05  1.0069294114606284e-05  8.1771807560303961e-06  6.4840751603478044e-06  4.9956545464958162e-06  3.7281267513927168e-06  2.6927860380149576e-06  1.8953836384105503e-06  1.3658581728331056e-06  1.2881623655868286e-06  1.4843509023820927e-06  1.1594250171522750e-06  7.7880319523614962e-07  4.8444675843404898e-07  2.8697498828885684e-07  1.6377769479079565e-07  9.0543760626020276e-08  4.8638244933321140e-08  2.5438176434045479e-08  1.2973308990857493e-08  6.4600654875717261e-09  3.1444850937499009e-09  1.4977990631058244e-09  6.9884724775073262e-10  3.1969335988639107e-10  1.4346744156346573e-10  6.2926320936491372e-11  2.5281328307251527e-11  0.0000000000000000e+00  6.0000000000000002e-05  5.5041727841262775e-05  5.3186223070939530e-05  5.1791504484314681e-05  5.0186972752069091e-05  4.8172751524005732e-05  4.5753482017724787e-05  4.3046827148530056e-05  4.0230064120214156e-05  3.7493298293616074e-05  3.4999722464719568e-05  3.2859774089416520e-05  3.1122477088175069e-05  2.9781472278406587e-05  2.8789348278389921e-05  2.8073018933791560e-05  2.7543311531716057e-05  2.7082721220662384e-05  2.6397597966359237e-05  2.3240136898625358e-05  1.8584973302566249e-05  1.5310787660049696e-05  1.2744420217830048e-05  1.0540631912457965e-05  8.5736324867452736e-06  6.8096609566923406e-06  5.2553917792807267e-06  3.9286447205785603e-06  2.8421559591825090e-06  2.0022655131980338e-06  1.4375939332679529e-06  1.3199612867824592e-06  1.4991798058187072e-06  1.1694413469991510e-06  7.8504759498422525e-07  4.8824655777865150e-07  2.8922744155875464e-07  1.6507567815175298e-07  9.1270683467940531e-08  4.9034154960742558e-08  2.5648087446313999e-08  1.3081776362496909e-08  6.5147533350661018e-09  3.1714191479275535e-09  1.5107709684974443e-09  7.0496295311769979e-10  3.2251862672395603e-10  1.4474768062284846e-10  6.3496537667758143e-11  2.5533555691897316e-11  0.0000000000000000e+00  6.0000000000000002e-05  5.5296258592305582e-05  5.3449450225757069e-05  5.2055027005986398e-05  5.0446544982670284e-05  4.8425126143247708e-05  4.5995767047528720e-05  4.3276634769027445e-05  4.0445825957388906e-05  3.7694481311498106e-05  3.5186840909053732e-05  3.3034203340572566e-05  3.1286143948551333e-05  2.9936517617187782e-05  2.8937840155380664e-05  2.8216759898398433e-05  2.7683782672412160e-05  2.7221545563258760e-05  2.6534831513765575e-05  2.3640170728384213e-05  1.9257933909080070e-05  1.5935346769727315e-05  1.3294931173132840e-05  1.1016503643177531e-05  8.9766725891428635e-06  7.1424903439846394e-06  5.5221525019955684e-06  4.1354336211502926e-06  2.9967698142046930e-06  2.1132808806651977e-06  1.5123810212840006e-06  1.3558441480036607e-06  1.5160440931768888e-06  1.1801255344457282e-06  7.9150767574008451e-07  4.9212311764640008e-07  2.9151171709022735e-07  1.6638879145341415e-07  9.2005418282567547e-08  4.9434230076582332e-08  2.5860222745837563e-08  1.3191415893281812e-08  6.5700468701707789e-09  3.1986593915920548e-09  1.5238942391223894e-09  7.1115186021154419e-10  3.2537855053061669e-10  1.4604399538509735e-10  6.4074017318542424e-11  2.5788041372603235e-11  0.0000000000000000e+00  6.0000000000000002e-05  5.5544797567682358e-05  5.3711775072424049e-05  5.2319180078227447e-05  5.0707217452564826e-05  4.8678729215996693e-05  4.6239291741847452e-05  4.3507647319999708e-05  4.0662736272529725e-05  3.7896745355936095e-05  3.5374969012445395e-05  3.3209572723894453e-05  3.1450687748337351e-05  3.0092385958319886e-05  2.9087111730369004e-05  2.8361248984266993e-05  2.7824992261699947e-05  2.7361204710096365e-05  2.6675319137594895e-05  2.4014520588696033e-05  1.9891818154198903e-05  1.6548345752067871e-05  1.3844430477491376e-05  1.1496349900484015e-05  9.3860521440737993e-06  7.4825092836270312e-06  5.7959962815806720e-06  4.3486096059194655e-06  3.1567621264777622e-06  2.2285613473499553e-06  1.5903741054989982e-06  1.3955774545563503e-06  1.5349580520556319e-06  1.1914806345786544e-06  7.9818376014363879e-07  4.9607618748973922e-07  2.9382751201227605e-07  1.6771679602761528e-07  9.2747801305966482e-08  4.9838366019415249e-08  2.6074519348832172e-08  1.3302191114222039e-08  6.6259257394673765e-09  3.2261948355943737e-09  1.5371631193535211e-09  7.1741103821049379e-10  3.2827167743610125e-10  1.4735568111186936e-10  6.4658421213631490e-11  2.6044628620893301e-11  0.0000000000000000e+00  6.0000000000000002e-05  5.5787268443352928e-05  5.3973212396631709e-05  5.2583973536083943e-05  5.0968999157784664e-05  4.8933569474084039e-05  4.6484064460988126e-05  4.3739872493199084e-05  4.0880801826673222e-05  3.8100096137600232e-05  3.5564111482632567e-05  3.3385886122870169e-05  3.1616111790989968e-05  3.0249080269697073e-05  2.9237165832536530e-05  2.8506488976710042e-05  2.7966942711175828e-05  2.7501697839110868e-05  2.6818814249811466e-05  2.4366883707789251e-05  2.0488247769097209e-05  1.7148483031976785e-05  1.4392011204955973e-05  1.1979673758220929e-05  9.8015627387773921e-06  7.8296954857243591e-06  6.0770100157421559e-06  4.5683129430147426e-06  3.3222881947567893e-06  2.3482546557901771e-06  1.6717245828777564e-06  1.4389988388876113e-06  1.5559302899831663e-06  1.2035073554512118e-06  8.0507547346255961e-07  5.0010540541245899e-07  2.9617455112343698e-07  1.6905949817943012e-07  9.3497704072785613e-08  5.0246481800233427e-08  2.6290928418116345e-08  1.3414073723726484e-08  6.6823741226934842e-09  3.2540169240681932e-09  1.5505731211676777e-09  7.2373819872914387e-10  3.3119687096715815e-10  1.4868218640481667e-10  6.5249484585817446e-11  2.6303208565744819e-11  0.0000000000000000e+00  6.0000000000000002e-05  5.6023699266944440e-05  5.4233787719241209e-05  5.2849420436859022e-05  5.1231899911294420e-05  4.9189655699816288e-05  4.6730093404590853e-05  4.3973317820244522e-05  4.1100029308767411e-05  3.8304539410810531e-05  3.5754273177629765e-05  3.3563147647087024e-05  3.1782419643138213e-05  3.0406603783774524e-05  2.9388005530502763e-05  2.8652482857309738e-05  2.8109636551459599e-05  2.7643024551138421e-05  2.6965085743148787e-05  2.4700445311524018e-05  2.1049767662229053e-05  1.7734811850450229e-05  1.4936903006520369e-05  1.2466047402831207e-05  1.0223041334533153e-05  8.1840617915413643e-06  6.3653100082653692e-06  4.7947089953840123e-06  3.4935243116516007e-06  2.4725246848704185e-06  1.7565844131265625e-06  1.4860005487262866e-06  1.5789640543655831e-06  1.2162040742930618e-06  8.1218175279306860e-07  5.0421028697386080e-07  2.9855257363901605e-07  1.7041673888792689e-07  9.4255026445249467e-08  5.0658515315716250e-08  2.6509412637686261e-08  1.3527042078364679e-08  6.7393798950481820e-09  3.2821190840003624e-09  1.5641207889417847e-09  7.3013157630846999e-10  3.3415325285119658e-10  1.5002308453903135e-10  6.5847002785762243e-11  2.6563710794294476e-11  0.0000000000000000e+00  6.0000000000000002e-05  5.6254202103641122e-05  5.4493536782775470e-05  5.3115536979798926e-05  5.1495930356940482e-05  4.9446996771497211e-05  4.6977386661875635e-05  4.4207990712645499e-05  4.1320425356909292e-05  3.8510080973033605e-05  3.5945459085509559e-05  3.3741361597776794e-05  3.1949615092766463e-05  3.0564959954791812e-05  2.9539634093336682e-05  2.8799233771164478e-05  2.8253076404304767e-05  2.7785184565679013e-05  2.7113919098494201e-05  2.5017947087720797e-05  2.1579331007580884e-05  1.8306745109981521e-05  1.5478481679110921e-05  1.2955120235036041e-05  1.0650376257392669e-05  8.5456605046576568e-06  6.6610449766866167e-06  5.0279901764494890e-06  3.6706689564732033e-06  2.6015522516873481e-06  1.8451095381068075e-06  1.5365175197446963e-06  1.6040575603185191e-06  1.2295668481937288e-06  8.1950085614377165e-07  5.0839021648738991e-07  3.0096132247285471e-07  1.7178838541762837e-07  9.5019690926028775e-08  5.1074419769036197e-08  2.6729944071469024e-08  1.3641079962679126e-08  6.7969339448173131e-09  3.3104963585519893e-09  1.5778035081015996e-09  7.3658983124685742e-10  3.3714015491408623e-10  1.5137805018175363e-10  6.6450820085553012e-11  2.6826095727935089e-11  0.0000000000000000e+00  6.0000000000000002e-05  5.6478956292903646e-05  5.4752505161644137e-05  5.3382342427630005e-05  5.1761101977240394e-05  4.9705601699774843e-05  4.7225952252626120e-05  4.4443898494547123e-05  4.1541996575644552e-05  3.8716726664288543e-05  3.6137674307607415e-05  3.3920532439356460e-05  3.2117702114761307e-05  3.0724152423590852e-05  2.9692054958543609e-05  2.8946745000094327e-05  2.8397264960529729e-05  2.7928177493867332e-05  2.7265116733563127e-05  2.5321750717201952e-05  2.2080004790481687e-05  1.8864044357459303e-05  1.6016277947186633e-05  1.3446627451792473e-05  1.1083513775358992e-05  8.9145882987231263e-06  6.9643996487721012e-06  5.2683785168495383e-06  3.8539445871408681e-06  2.7355364090903239e-06  1.9374629061925695e-06  1.5905187557388074e-06  1.6312042866122325e-06  1.2435894214609362e-06  8.2703037193683288e-07  5.1264444053157324e-07  3.0340053563908208e-07  1.7317432450403947e-07  9.5791638022865362e-08  5.1494160750493124e-08  2.6952502417111386e-08  1.3756175586440327e-08  6.8550296174898857e-09  3.3391451085364825e-09  1.5916193494346433e-09  7.4311197058925092e-10  3.4015707998967297e-10  1.5274684048304983e-10  6.7060820586363812e-11  2.7090348449534691e-11  0.0000000000000000e+00  6.0000000000000002e-05  5.6698194721464496e-05  5.5010747942533066e-05  5.3649859027099129e-05  5.2027427095352061e-05  4.9965479656201517e-05  4.7475798160486362e-05  4.4681048429485223e-05  4.1764749550051660e-05  3.8924482366509754e-05  3.6330924044571992e-05  3.4100664775921155e-05  3.2286684842524110e-05  3.0884184988678656e-05  2.9845271705779904e-05  2.9095019940735974e-05  2.8542204962634517e-05  2.8072002674242655e-05  2.7418497793563939e-05  2.5613894875927710e-05  2.2554807355611040e-05  1.9406795153257491e-05  1.6549984638339566e-05  1.3940398561751011e-05  1.1522464960793506e-05  9.2909914915108170e-06  7.2755987538382410e-06  5.5161286374783297e-06  4.0435998227075666e-06  2.8746960689687257e-06  2.0338171655643660e-06  1.6480011056893055e-06  1.6603932151289509e-06  1.2582632315764491e-06  8.3476722935744744e-07  5.1697206343181959e-07  3.0586993943129045e-07  1.7457445683700815e-07  9.6570822475002830e-08  5.1917713857286810e-08  2.7177073582042570e-08  1.3872320767255929e-08  6.9136622628725075e-09  3.3680627693557353e-09  1.6055669424033070e-09  7.4969728387239722e-10  3.4320367014832333e-10  1.5412927971528083e-10  6.7676920832845648e-11  2.7356473716325753e-11  0.0000000000000000e+00  6.0000000000000002e-05  5.6912192614676067e-05  5.5268329437171729e-05  5.3918111926432635e-05  5.2294918871546740e-05  5.0226639995164296e-05  4.7726932359871854e-05  4.4919447742210286e-05  4.1988690857199937e-05  3.9133354002900391e-05  3.6525213584779176e-05  3.4281763331825713e-05  3.2456567544578664e-05  3.1045061582423668e-05  2.9999288035269971e-05  2.9244062086649549e-05  2.8687899191207108e-05  2.8216659059127289e-05  2.7573897540745751e-05  2.5896145310468821e-05  2.3006624542398906e-05  1.9935373956093330e-05  1.7079461870168241e-05  1.4436365533564367e-05  1.1967312663627050e-05  9.6750715628312086e-06  7.5949112975670806e-06  5.7715310132175277e-06  4.2399119006560332e-06  3.0192718566923902e-06  2.1343571012602157e-06  1.7089847856263479e-06  1.6916089994004388e-06  1.2735774154205251e-06  8.4270770989784191e-07  5.2137204450591120e-07  3.0836924309578101e-07  1.7598869261514756e-07  9.7357210185940471e-08  5.2345062753792424e-08  2.7403648522409938e-08  1.3989510264202981e-08  6.9728288660532942e-09  3.3972476530512403e-09  1.6196453720338966e-09  7.5634529085877456e-10  3.4627968086838960e-10  1.5552524679251910e-10  6.8299063811651300e-11  2.7624491941132521e-11  0.0000000000000000e+00  6.0000000000000002e-05  5.7121258429288214e-05  5.5525322901566984e-05  5.4187129088195572e-05  5.2563591294493842e-05  5.0489092270152609e-05  4.7979362837569901e-05  4.5159103636450976e-05  4.2213827075463141e-05  3.9343347537298845e-05  3.6720548294708769e-05  3.4463832935640848e-05  3.2627354605290435e-05  3.1206786251470376e-05  3.0154107750082087e-05  2.9393875013716636e-05  2.8834350454410692e-05  2.8362145141387157e-05  2.7731166463960430e-05  2.6170038236683942e-05  2.3438172187118044e-05  2.0450411508463199e-05  1.7604740157846420e-05  1.4934570420693761e-05  1.2418218491246223e-05  1.0067090842185538e-05  7.9226550547595397e-06  6.0349154613852531e-06  4.4431893444656034e-06  3.1695281441029453e-06  2.2392818869501232e-06  1.7735101765212881e-06  1.7248320545072105e-06  1.2895188172253172e-06  8.5084746037200604e-07  5.2584319689468903e-07  3.1089813476417657e-07  1.7741694798502957e-07  9.8150775735187945e-08  5.2776197591700922e-08  2.7632222296378539e-08  1.4107741234472246e-08  7.0325277466038380e-09  3.4266987870434616e-09  1.6338540949653482e-09  7.6305569900747800e-10  3.4938496003158771e-10  1.5693466512634201e-10  6.8927214072141428e-11  2.7894435963965866e-11  0.0000000000000000e+00  6.0000000000000002e-05  5.7325726498612311e-05  5.5781810244622806e-05  5.4456941196459632e-05  5.2833459167651764e-05  5.0752846245173218e-05  4.8233097609918565e-05  4.5400023309333690e-05  4.2440164792082277e-05  3.9554468973573044e-05  3.6916933610949512e-05  3.4646878506892598e-05  3.2799050508968151e-05  3.1369363140617997e-05  3.0309734741569168e-05  2.9544462368237146e-05  2.8981561579990412e-05  2.8508458913071104e-05  2.7890169200525026e-05  2.6436917632270133e-05  2.3851985597440788e-05  2.0952756552643062e-05  1.8126021575895092e-05  1.5435172395759008e-05  1.2875429731847972e-05  1.0467378319187352e-05  8.2592012399939207e-06  6.3066548165550595e-06  4.6537748053972942e-06  3.3257552320433217e-06  2.3488072131263012e-06  1.8416355598958691e-06  1.7600385649619025e-06  1.3060719995519915e-06  8.5918150761885149e-07  5.3038418782331281e-07  3.1345627845063556e-07  1.7885914221196567e-07  9.8951500364691661e-08  5.3211113724066692e-08  2.7862793292162938e-08  1.4227012790160620e-08  7.0927583132861834e-09  3.4564157826913522e-09  1.6481928710605827e-09  7.6982836884920730e-10  3.5251943083197705e-10  1.5835749437606115e-10  6.9561353756470412e-11  2.8166348468197652e-11  0.0000000000000000e+00  6.0000000000000002e-05  5.7525951137894237e-05  5.6037881715539128e-05  5.4727581557515245e-05  5.3104538091046748e-05  5.1017911901993054e-05  4.8488144736300663e-05  4.5642213963048248e-05  4.2667710609299495e-05  3.9766724355051179e-05  3.7114375033553458e-05  3.4830905045095058e-05  3.2971659826745528e-05  3.1532796479541726e-05  3.0466172977403210e-05  2.9695827857238026e-05  2.9129535409353058e-05  2.8655597848924517e-05  2.8050783339638131e-05  2.6697967124592960e-05  2.4250424371155763e-05  2.1443442424719962e-05  1.8643679272353021e-05  1.5938454186409411e-05  1.3339286183672530e-05  1.0876335545616817e-05  8.6049793305371967e-06  6.5871687687904609e-06  4.8720480581861293e-06  3.4882716668080945e-06  2.4631673431224295e-06  1.9134355460357085e-06  1.7972004099291691e-06  1.3232192584643990e-06  8.6770427506190277e-07  5.3499354015821530e-07  3.1604331195161304e-07  1.8031519545625258e-07  9.9759370354367449e-08  5.3649810659274217e-08  2.8095362598391499e-08  1.4347325636536538e-08  7.1535208638731732e-09  3.4863987280709406e-09  1.6626617076489948e-09  7.7666328577255416e-10  3.5568307785758725e-10  1.5979372373387028e-10  7.0201479366072691e-11  2.8440279921824337e-11  0.0000000000000000e+00  6.0000000000000002e-05  5.7722301965330216e-05  5.6293635564044052e-05  5.4999085993618422e-05  5.3376844438712225e-05  5.1284299443784702e-05  4.8744512329564358e-05  4.5885682814246319e-05  4.2896471149326690e-05  3.9980119763993163e-05  3.7312878120507147e-05  3.5015917620670552e-05  3.3145187205744832e-05  3.169709057184302