<?xml version="1.0"?>
<VTKFile type="UnstructuredGrid"  version="0.1"  >
<UnstructuredGrid>
<Piece  NumberOfPoints="2601" NumberOfCells="5000">
<Points>
<DataArray  type="Float64"  NumberOfComponents="3"  format="ascii">-1 0 0  -0.96 0 0  -0.92 0 0  -0.88 0 0  -0.84 0 0  -0.8 0 0  -0.76 0 0  -0.72 0 0  -0.6799999999999999 0 0  -0.64 0 0  -0.6 0 0  -0.5600000000000001 0 0  -0.52 0 0  -0.48 0 0  -0.4399999999999999 0 0  -0.4 0 0  -0.36 0 0  -0.32 0 0  -0.28 0 0  -0.24 0 0  -0.2 0 0  -0.16 0 0  -0.12 0 0  -0.07999999999999996 0 0  -0.04000000000000004 0 0  0 0 0  0.04000000000000004 0 0  0.08000000000000007 0 0  0.1200000000000001 0 0  0.1599999999999999 0 0  0.2 0 0  0.24 0 0  0.28 0 0  0.3200000000000001 0 0  0.3600000000000001 0 0  0.3999999999999999 0 0  0.4399999999999999 0 0  0.48 0 0  0.52 0 0  0.5600000000000001 0 0  0.6000000000000001 0 0  0.6399999999999999 0 0  0.6799999999999999 0 0  0.72 0 0  0.76 0 0  0.8 0 0  0.8400000000000001 0 0  0.8799999999999999 0 0  0.9199999999999999 0 0  0.96 0 0  1 0 0  -1 0.016 0  -0.96 0.016 0  -0.92 0.016 0  -0.88 0.016 0  -0.84 0.016 0  -0.8 0.016 0  -0.76 0.016 0  -0.72 0.016 0  -0.6799999999999999 0.016 0  -0.64 0.016 0  -0.6 0.016 0  -0.5600000000000001 0.016 0  -0.52 0.016 0  -0.48 0.016 0  -0.4399999999999999 0.016 0  -0.4 0.016 0  -0.36 0.016 0  -0.32 0.016 0  -0.28 0.016 0  -0.24 0.016 0  -0.2 0.016 0  -0.16 0.016 0  -0.12 0.016 0  -0.07999999999999996 0.016 0  -0.04000000000000004 0.016 0  0 0.016 0  0.04000000000000004 0.016 0  0.08000000000000007 0.016 0  0.1200000000000001 0.016 0  0.1599999999999999 0.016 0  0.2 0.016 0  0.24 0.016 0  0.28 0.016 0  0.3200000000000001 0.016 0  0.3600000000000001 0.016 0  0.3999999999999999 0.016 0  0.4399999999999999 0.016 0  0.48 0.016 0  0.52 0.016 0  0.5600000000000001 0.016 0  0.6000000000000001 0.016 0  0.6399999999999999 0.016 0  0.6799999999999999 0.016 0  0.72 0.016 0  0.76 0.016 0  0.8 0.016 0  0.8400000000000001 0.016 0  0.8799999999999999 0.016 0  0.9199999999999999 0.016 0  0.96 0.016 0  1 0.016 0  -1 0.032 0  -0.96 0.032 0  -0.92 0.032 0  -0.88 0.032 0  -0.84 0.032 0  -0.8 0.032 0  -0.76 0.032 0  -0.72 0.032 0  -0.6799999999999999 0.032 0  -0.64 0.032 0  -0.6 0.032 0  -0.5600000000000001 0.032 0  -0.52 0.032 0  -0.48 0.032 0  -0.4399999999999999 0.032 0  -0.4 0.032 0  -0.36 0.032 0  -0.32 0.032 0  -0.28 0.032 0  -0.24 0.032 0  -0.2 0.032 0  -0.16 0.032 0  -0.12 0.032 0  -0.07999999999999996 0.032 0  -0.04000000000000004 0.032 0  0 0.032 0  0.04000000000000004 0.032 0  0.08000000000000007 0.032 0  0.1200000000000001 0.032 0  0.1599999999999999 0.032 0  0.2 0.032 0  0.24 0.032 0  0.28 0.032 0  0.3200000000000001 0.032 0  0.3600000000000001 0.032 0  0.3999999999999999 0.032 0  0.4399999999999999 0.032 0  0.48 0.032 0  0.52 0.032 0  0.5600000000000001 0.032 0  0.6000000000000001 0.032 0  0.6399999999999999 0.032 0  0.6799999999999999 0.032 0  0.72 0.032 0  0.76 0.032 0  0.8 0.032 0  0.8400000000000001 0.032 0  0.8799999999999999 0.032 0  0.9199999999999999 0.032 0  0.96 0.032 0  1 0.032 0  -1 0.04800000000000001 0  -0.96 0.04800000000000001 0  -0.92 0.04800000000000001 0  -0.88 0.04800000000000001 0  -0.84 0.04800000000000001 0  -0.8 0.04800000000000001 0  -0.76 0.04800000000000001 0  -0.72 0.04800000000000001 0  -0.6799999999999999 0.04800000000000001 0  -0.64 0.04800000000000001 0  -0.6 0.04800000000000001 0  -0.5600000000000001 0.04800000000000001 0  -0.52 0.04800000000000001 0  -0.48 0.04800000000000001 0  -0.4399999999999999 0.04800000000000001 0  -0.4 0.04800000000000001 0  -0.36 0.04800000000000001 0  -0.32 0.04800000000000001 0  -0.28 0.04800000000000001 0  -0.24 0.04800000000000001 0  -0.2 0.04800000000000001 0  -0.16 0.04800000000000001 0  -0.12 0.04800000000000001 0  -0.07999999999999996 0.04800000000000001 0  -0.04000000000000004 0.04800000000000001 0  0 0.04800000000000001 0  0.04000000000000004 0.04800000000000001 0  0.08000000000000007 0.04800000000000001 0  0.1200000000000001 0.04800000000000001 0  0.1599999999999999 0.04800000000000001 0  0.2 0.04800000000000001 0  0.24 0.04800000000000001 0  0.28 0.04800000000000001 0  0.3200000000000001 0.04800000000000001 0  0.3600000000000001 0.04800000000000001 0  0.3999999999999999 0.04800000000000001 0  0.4399999999999999 0.04800000000000001 0  0.48 0.04800000000000001 0  0.52 0.04800000000000001 0  0.5600000000000001 0.04800000000000001 0  0.6000000000000001 0.04800000000000001 0  0.6399999999999999 0.04800000000000001 0  0.6799999999999999 0.04800000000000001 0  0.72 0.04800000000000001 0  0.76 0.04800000000000001 0  0.8 0.04800000000000001 0  0.8400000000000001 0.04800000000000001 0  0.8799999999999999 0.04800000000000001 0  0.9199999999999999 0.04800000000000001 0  0.96 0.04800000000000001 0  1 0.04800000000000001 0  -1 0.064 0  -0.96 0.064 0  -0.92 0.064 0  -0.88 0.064 0  -0.84 0.064 0  -0.8 0.064 0  -0.76 0.064 0  -0.72 0.064 0  -0.6799999999999999 0.064 0  -0.64 0.064 0  -0.6 0.064 0  -0.5600000000000001 0.064 0  -0.52 0.064 0  -0.48 0.064 0  -0.4399999999999999 0.064 0  -0.4 0.064 0  -0.36 0.064 0  -0.32 0.064 0  -0.28 0.064 0  -0.24 0.064 0  -0.2 0.064 0  -0.16 0.064 0  -0.12 0.064 0  -0.07999999999999996 0.064 0  -0.04000000000000004 0.064 0  0 0.064 0  0.04000000000000004 0.064 0  0.08000000000000007 0.064 0  0.1200000000000001 0.064 0  0.1599999999999999 0.064 0  0.2 0.064 0  0.24 0.064 0  0.28 0.064 0  0.3200000000000001 0.064 0  0.3600000000000001 0.064 0  0.3999999999999999 0.064 0  0.4399999999999999 0.064 0  0.48 0.064 0  0.52 0.064 0  0.5600000000000001 0.064 0  0.6000000000000001 0.064 0  0.6399999999999999 0.064 0  0.6799999999999999 0.064 0  0.72 0.064 0  0.76 0.064 0  0.8 0.064 0  0.8400000000000001 0.064 0  0.8799999999999999 0.064 0  0.9199999999999999 0.064 0  0.96 0.064 0  1 0.064 0  -1 0.08 0  -0.96 0.08 0  -0.92 0.08 0  -0.88 0.08 0  -0.84 0.08 0  -0.8 0.08 0  -0.76 0.08 0  -0.72 0.08 0  -0.6799999999999999 0.08 0  -0.64 0.08 0  -0.6 0.08 0  -0.5600000000000001 0.08 0  -0.52 0.08 0  -0.48 0.08 0  -0.4399999999999999 0.08 0  -0.4 0.08 0  -0.36 0.08 0  -0.32 0.08 0  -0.28 0.08 0  -0.24 0.08 0  -0.2 0.08 0  -0.16 0.08 0  -0.12 0.08 0  -0.07999999999999996 0.08 0  -0.04000000000000004 0.08 0  0 0.08 0  0.04000000000000004 0.08 0  0.08000000000000007 0.08 0  0.1200000000000001 0.08 0  0.1599999999999999 0.08 0  0.2 0.08 0  0.24 0.08 0  0.28 0.08 0  0.3200000000000001 0.08 0  0.3600000000000001 0.08 0  0.3999999999999999 0.08 0  0.4399999999999999 0.08 0  0.48 0.08 0  0.52 0.08 0  0.5600000000000001 0.08 0  0.6000000000000001 0.08 0  0.6399999999999999 0.08 0  0.6799999999999999 0.08 0  0.72 0.08 0  0.76 0.08 0  0.8 0.08 0  0.8400000000000001 0.08 0  0.8799999999999999 0.08 0  0.9199999999999999 0.08 0  0.96 0.08 0  1 0.08 0  -1 0.09600000000000002 0  -0.96 0.09600000000000002 0  -0.92 0.09600000000000002 0  -0.88 0.09600000000000002 0  -0.84 0.09600000000000002 0  -0.8 0.09600000000000002 0  -0.76 0.09600000000000002 0  -0.72 0.09600000000000002 0  -0.6799999999999999 0.09600000000000002 0  -0.64 0.09600000000000002 0  -0.6 0.09600000000000002 0  -0.5600000000000001 0.09600000000000002 0  -0.52 0.09600000000000002 0  -0.48 0.09600000000000002 0  -0.4399999999999999 0.09600000000000002 0  -0.4 0.09600000000000002 0  -0.36 0.09600000000000002 0  -0.32 0.09600000000000002 0  -0.28 0.09600000000000002 0  -0.24 0.09600000000000002 0  -0.2 0.09600000000000002 0  -0.16 0.09600000000000002 0  -0.12 0.09600000000000002 0  -0.07999999999999996 0.09600000000000002 0  -0.04000000000000004 0.09600000000000002 0  0 0.09600000000000002 0  0.04000000000000004 0.09600000000000002 0  0.08000000000000007 0.09600000000000002 0  0.1200000000000001 0.09600000000000002 0  0.1599999999999999 0.09600000000000002 0  0.2 0.09600000000000002 0  0.24 0.09600000000000002 0  0.28 0.09600000000000002 0  0.3200000000000001 0.09600000000000002 0  0.3600000000000001 0.09600000000000002 0  0.3999999999999999 0.09600000000000002 0  0.4399999999999999 0.09600000000000002 0  0.48 0.09600000000000002 0  0.52 0.09600000000000002 0  0.5600000000000001 0.09600000000000002 0  0.6000000000000001 0.09600000000000002 0  0.6399999999999999 0.09600000000000002 0  0.6799999999999999 0.09600000000000002 0  0.72 0.09600000000000002 0  0.76 0.09600000000000002 0  0.8 0.09600000000000002 0  0.8400000000000001 0.09600000000000002 0  0.8799999999999999 0.09600000000000002 0  0.9199999999999999 0.09600000000000002 0  0.96 0.09600000000000002 0  1 0.09600000000000002 0  -1 0.112 0  -0.96 0.112 0  -0.92 0.112 0  -0.88 0.112 0  -0.84 0.112 0  -0.8 0.112 0  -0.76 0.112 0  -0.72 0.112 0  -0.6799999999999999 0.112 0  -0.64 0.112 0  -0.6 0.112 0  -0.5600000000000001 0.112 0  -0.52 0.112 0  -0.48 0.112 0  -0.4399999999999999 0.112 0  -0.4 0.112 0  -0.36 0.112 0  -0.32 0.112 0  -0.28 0.112 0  -0.24 0.112 0  -0.2 0.112 0  -0.16 0.112 0  -0.12 0.112 0  -0.07999999999999996 0.112 0  -0.04000000000000004 0.112 0  0 0.112 0  0.04000000000000004 0.112 0  0.08000000000000007 0.112 0  0.1200000000000001 0.112 0  0.1599999999999999 0.112 0  0.2 0.112 0  0.24 0.112 0  0.28 0.112 0  0.3200000000000001 0.112 0  0.3600000000000001 0.112 0  0.3999999999999999 0.112 0  0.4399999999999999 0.112 0  0.48 0.112 0  0.52 0.112 0  0.5600000000000001 0.112 0  0.6000000000000001 0.112 0  0.6399999999999999 0.112 0  0.6799999999999999 0.112 0  0.72 0.112 0  0.76 0.112 0  0.8 0.112 0  0.8400000000000001 0.112 0  0.8799999999999999 0.112 0  0.9199999999999999 0.112 0  0.96 0.112 0  1 0.112 0  -1 0.128 0  -0.96 0.128 0  -0.92 0.128 0  -0.88 0.128 0  -0.84 0.128 0  -0.8 0.128 0  -0.76 0.128 0  -0.72 0.128 0  -0.6799999999999999 0.128 0  -0.64 0.128 0  -0.6 0.128 0  -0.5600000000000001 0.128 0  -0.52 0.128 0  -0.48 0.128 0  -0.4399999999999999 0.128 0  -0.4 0.128 0  -0.36 0.128 0  -0.32 0.128 0  -0.28 0.128 0  -0.24 0.128 0  -0.2 0.128 0  -0.16 0.128 0  -0.12 0.128 0  -0.07999999999999996 0.128 0  -0.04000000000000004 0.128 0  0 0.128 0  0.04000000000000004 0.128 0  0.08000000000000007 0.128 0  0.1200000000000001 0.128 0  0.1599
[...]
<PointData  Scalars="f_100"> 
<DataArray  type="Float64"  Name="f_100"  format="ascii">6.0000000000000002e-05  3.3792148585974929e-05  2.9335084829376599e-05  2.8464643665600089e-05  2.8288271973080949e-05  2.8251747145300426e-05  2.8244081102171493e-05  2.8242459024418703e-05  2.8242114147202773e-05  2.8242040612606175e-05  2.8242024904253510e-05  2.8242021508570480e-05  2.8242020356148389e-05  2.8242015274670944e-05  2.8241959341407755e-05  2.8241325520485831e-05  2.8234144695016108e-05  2.8152731607192851e-05  2.7256107917474691e-05  1.0551622563078241e-05  1.5749507328951852e-06  2.6473878505935553e-07  4.6606544362328311e-08  8.4008041860878965e-09  1.5372558493626276e-09  2.8438014610063275e-10  5.3055621443376622e-11  9.9675628880693325e-12  1.8838552808235225e-12  3.5798337436480621e-13  6.8723192661309546e-14  1.8482743362327672e-14  9.0432864518416559e-15  2.7813485773434494e-15  7.2251719801786063e-16  1.7143528372985687e-16  3.8820014144579787e-17  8.5752028135164718e-18  1.8686853280375487e-18  4.0413222658230165e-19  8.7022597877782101e-20  1.8692313639775923e-20  4.0093396500285902e-21  8.5925764111693911e-22  1.8406272824992064e-22  3.9417368773128041e-23  8.4399390428506381e-24  1.8069512046305850e-24  3.8666262624477317e-25  8.0897882159445563e-26  0.0000000000000000e+00  6.0000000000000002e-05  3.3978618018034696e-05  2.9482183504360284e-05  2.8602994534688807e-05  2.8424815351527340e-05  2.8387912342865062e-05  2.8380166438439331e-05  2.8378527401213673e-05  2.8378178910453681e-05  2.8378104604416951e-05  2.8378088731192592e-05  2.8378085300338138e-05  2.8378084141412908e-05  2.8378079070140780e-05  2.8378023270621593e-05  2.8377390970529026e-05  2.8370227232673437e-05  2.8289041594301137e-05  2.7384453779281367e-05  1.1163954082872666e-05  1.6882628647697913e-06  2.8661791833861463e-07  5.0620806966486660e-08  9.1370641278120009e-09  1.6733239469907558e-09  3.0971872764150678e-10  5.7805942886361613e-11  1.0863408062378538e-11  2.0537003757866914e-12  3.9034173083947842e-13  7.4907406938197607e-14  1.9035541260919990e-14  9.1419767230405288e-15  2.8139509251751817e-15  7.3067135611599743e-16  1.7331314609850422e-16  3.9237705081938660e-17  8.6665395215253571e-18  1.8884755333219361e-18  4.0839822703334754e-19  8.7939486846295491e-20  1.8889047584340051e-20  4.0515110716710640e-21  8.6829230327599355e-22  1.8599764999607836e-22  3.9831685441231929e-23  8.5286451555408138e-24  1.8259422032139849e-24  3.9072866316884063e-25  8.1774015645546791e-26  0.0000000000000000e+00  6.0000000000000002e-05  3.4156952978868042e-05  2.9619784259906642e-05  2.8731695836013931e-05  2.8551651734854705e-05  2.8514354980693815e-05  2.8506525476122929e-05  2.8504868628501128e-05  2.8504516335757990e-05  2.8504441217161484e-05  2.8504425170168573e-05  2.8504421702257885e-05  2.8504420536783636e-05  2.8504415479767859e-05  2.8504359860683804e-05  2.8503729606916033e-05  2.8496588875931917e-05  2.8415694444490886e-05  2.7506893320330049e-05  1.1652569871664766e-05  1.8275993697053843e-06  3.1267484989295465e-07  5.5364054524896189e-08  1.0007640180353748e-08  1.8345163538094807e-09  3.3979119859389992e-10  6.3453111468758707e-11  1.1929983240593586e-11  2.2561929457493422e-12  4.2896968982365809e-13  8.2293048143718027e-14  1.9893488707855250e-14  9.2743706350366560e-15  2.8526421175794881e-15  7.3984583459489216e-16  1.7536644916251561e-16  3.9687360723331196e-17  8.7640154586538354e-18  1.9094922106347523e-18  4.1291585819705716e-19  8.8908884429480170e-20  1.9096853209732078e-20  4.0960316165842759e-21  8.7782723227165459e-22  1.8803933931109654e-22  4.0268817475788978e-23  8.6222303319493962e-24  1.8459770444471955e-24  3.9501810178451276e-25  8.2696994344458915e-26  0.0000000000000000e+00  6.0000000000000002e-05  3.4326492998786762e-05  2.9748520877794348e-05  2.8851486821652403e-05  2.8669538566811471e-05  2.8631835992614568e-05  2.8623919847075290e-05  2.8622244481479049e-05  2.8621888228244149e-05  2.8621812262281550e-05  2.8621796033962433e-05  2.8621792527389302e-05  2.8621791355303423e-05  2.8621786315728722e-05  2.8621730913811615e-05  2.8621103119106975e-05  2.8613990038697049e-05  2.8533434465159449e-05  2.7623355716559455e-05  1.2045042027025466e-05  1.9708928376180077e-06  3.3987263530591909e-07  6.0394167479723755e-08  1.0940339975042043e-08  2.0084056693243821e-09  3.7239813119935716e-10  6.9600880263066998e-11  1.3094986606763644e-11  2.4780115472163025e-12  4.7139380269849918e-13  9.0422249870016618e-14  2.0988764163615109e-14  9.4407952114339748e-15  2.8974388663866063e-15  7.5001984644478113e-16  1.7758610812258222e-16  4.0166387871309949e-17  8.8669918516936860e-18  1.9315881047293208e-18  4.1765228601407212e-19  8.9923598700062158e-20  1.9314170655358182e-20  4.1425648438637287e-21  8.8779009279872090e-22  1.9017227243062997e-22  4.0725436866191752e-23  8.7199815437899421e-24  1.8669030132467545e-24  3.9949821635379652e-25  8.3659632950601649e-26  0.0000000000000000e+00  6.0000000000000002e-05  3.4486892324434681e-05  2.9869003376830928e-05  2.8963058000768661e-05  2.8779180577474476e-05  2.8741062845630109e-05  2.8733057566631354e-05  2.8731363088207395e-05  2.8731002739524705e-05  2.8730925896359455e-05  2.8730909480211202e-05  2.8730905933588435e-05  2.8730904754814347e-05  2.8730899735171808e-05  2.8730844579182552e-05  2.8730219566050953e-05  2.8723137758382056e-05  2.8642956486673500e-05  2.7733860773945974e-05  1.2362477118498836e-05  2.1067179236634076e-06  3.6682754565335415e-07  6.5503380369214372e-08  1.1900857384233288e-08  2.1891192299758981e-09  4.0651061021958373e-10  7.6065943666273930e-11  1.4325352260780438e-11  2.7131340135521403e-12  5.1650899693129929e-13  9.9093646140332142e-14  2.2278896615740306e-14  9.6417083542112840e-15  2.9483633339572425e-15  7.6117657045652199e-16  1.7996483626798764e-16  4.0672724669808111e-17  8.9749630478442244e-18  1.9546469108663773e-18  4.2258160864353977e-19  9.0977959890286929e-20  1.9539770657459811e-20  4.1908456737409873e-21  8.9812389919738942e-22  1.9238422060642433e-22  4.1198922098701788e-23  8.8213371432893670e-24  1.8885998185561657e-24  4.0414322973210013e-25  8.4656293385273778e-26  0.0000000000000000e+00  6.0000000000000002e-05  3.4638048890824179e-05  2.9981815771110991e-05  2.9067054418211187e-05  2.8881233855392702e-05  2.8842693763856191e-05  2.8834597288008023e-05  2.8832883190278850e-05  2.8832518629678341e-05  2.8832440883377503e-05  2.8832424273725555e-05  2.8832420685838332e-05  2.8832419500287339e-05  2.8832414502512867e-05  2.8832359614834325e-05  2.8831737633608493e-05  2.8824689902658419e-05  2.8744909111679977e-05  2.7838502658120836e-05  1.2621085127537062e-05  2.2297984459949935e-06  3.9285502902208999e-07  7.0580392281516846e-08  1.2870778192816372e-08  2.3735553865483827e-09  4.4159640511649858e-10  8.2755623737147723e-11  1.5604761574481690e-11  2.9586629618138217e-12  5.6379776261365555e-13  1.0821598196559991e-13  2.3735588373372219e-14  9.8776076366530158e-15  3.0054396564308046e-15  7.7330188784927282e-16  1.8249671679457408e-16  4.1204723744088982e-17  9.0875281197057649e-18  1.9785767665855777e-18  4.2768340946836270e-19  9.2067503935368188e-20  1.9772685972137026e-20  4.2406656037380730e-21  9.0878383780238272e-22  1.9466556826691933e-22  4.1687211996363829e-23  8.9258555500133580e-24  1.9109728869705772e-24  4.0893287637211066e-25  8.5682564885980481e-26  0.0000000000000000e+00  6.0000000000000002e-05  3.4780047142326185e-05  3.0087515088885382e-05  2.9164078849599285e-05  2.8976309666529979e-05  2.8937341667444633e-05  2.8929152265335787e-05  2.8927418110817029e-05  2.8927049236287135e-05  2.8926970563974086e-05  2.8926953755793202e-05  2.8926950125561585e-05  2.8926948933134826e-05  2.8926943958719798e-05  2.8926889356633243e-05  2.8926270599932663e-05  2.8919259094463897e-05  2.8839897912220935e-05  2.7937435425469119e-05  1.2833358629687298e-05  2.3383278420587605e-06  4.1757007937380731e-07  7.5555438687650336e-08  1.3838508613277997e-08  2.5597904415027181e-09  4.7733343821378987e-10  8.9615555230322182e-11  1.6923986820149954e-11  3.2130282391038938e-12  6.1299321629850347e-13  1.1774498416404472e-13  2.5339070330379244e-14  1.0148990673913192e-14  3.0686910521813313e-15  7.8638335464146820e-16  1.8517685904577236e-16  4.1761058948933137e-17  9.2043682742348723e-18  2.0033050816988440e-18  4.3294160857322738e-19  9.3188721406156329e-20  2.0012156982224023e-20  4.2918609842811565e-21  9.1973474710444208e-22  1.9700877235288389e-22  4.2188689824628147e-23  9.0331904221836153e-24  1.9339480452002584e-24  4.1385126290811549e-25  8.6735010044937079e-26  0.0000000000000000e+00  6.0000000000000002e-05  3.4913112196747101e-05  3.0186631302911323e-05  2.9254694890944595e-05  2.9064978035145972e-05  2.9025577848338028e-05  2.9017294048496937e-05  2.9015539453248923e-05  2.9015166174032362e-05  2.9015086555213821e-05  2.9015069543985468e-05  2.9015065870434862e-05  2.9015064671024750e-05  2.9015059721105156e-05  2.9015005417812577e-05  2.9014390032133710e-05  2.9007416376451345e-05  2.8928488544210201e-05  2.8030860411973983e-05  1.3008960826381728e-05  2.4323811132437653e-06  4.4073222362913528e-07  8.0378823683060089e-08  1.4795548514624170e-08  2.7464118218255058e-09  5.1348865805563585e-10  9.6607424106559567e-11  1.8276763082691226e-11  3.4752159287842837e-12  6.6393424247050649e-13  1.2765626720637331e-13  2.7075081458792461e-14  1.0456342029281891e-14  3.1381373180367629e-15  8.0040936529538299e-16  1.8800112283379623e-16  4.2340651008055092e-17  9.3252288863010756e-18  2.0287744322052530e-18  4.3834355123301239e-19  9.4338858331742251e-20  2.0257588555670952e-20  4.3443037207549763e-21  9.3094911955622388e-22  1.9940793359687775e-22  4.2702091395003118e-23  9.1430709695034984e-24  1.9574673037200209e-24  4.1888596468681144e-25  8.7810963225879521e-26  0.0000000000000000e+00  6.0000000000000002e-05  3.5037573288034622e-05  3.0279667908175516e-05  2.9339429929315139e-05  2.9147771101994059e-05  2.9107935403528036e-05  2.9099555931495802e-05  2.9097780552791895e-05  2.9097402786834064e-05  2.9097322202864896e-05  2.9097304984464054e-05  2.9097301266701706e-05  2.9097300060193248e-05  2.9097295135620668e-05  2.9097241141064283e-05  2.9096629236068738e-05  2.9089694635033662e-05  2.9011209758523041e-05  2.8119015428315577e-05  1.3155395775684598e-05  2.5129835479360024e-06  4.6219025447916051e-07  8.5012618384000480e-08  1.5734986486719101e-08  2.9322445491116275e-09  5.4986772980917285e-10  1.0369963432506980e-10  1.9658045994988439e-11  3.7444414518314439e-12  7.1650388801419448e-13  1.3793384934074861e-13  2.8933152061305174e-14  1.0800133711441744e-14  3.2137925939857060e-15  8.1536847198994221e-16  1.9096589770409853e-16  4.2942608274854261e-17  9.4499052176740010e-18  2.0549393001133953e-18  4.4387928461194680e-19  9.5515758200004150e-20  2.0508515829290650e-20  4.3978938999351276e-21  9.4240551703565945e-22  2.0185845656634937e-22  4.3226432196673770e-23  9.2552863425715375e-24  1.9814855135124704e-24  4.2402730937249241e-25  8.8908370580597050e-26  0.0000000000000000e+00  6.0000000000000002e-05  3.5153834788190837e-05  3.0367102948729605e-05  2.9418777987398782e-05  2.9225186275199796e-05  2.9184912445361984e-05  2.9176436174736814e-05  2.9174639701201904e-05  2.9174257373116751e-05  2.9174175806773930e-05  2.9174158377379264e-05  2.9174154614575556e-05  2.9174153400847267e-05  2.9174148502246049e-05  2.9174094823764782e-05  2.9173486479722838e-05  2.9166591803161643e-05  2.9088556295610190e-05  2.8202165645758478e-05  1.3278515417617988e-05  2.5815739164916266e-06  4.8186265515792881e-07  8.9427438419243521e-08  1.6650922324721373e-08  3.1162449629813506e-09  5.8629509781652207e-10  1.1086354925347602e-10  2.1063301977177925e-11  4.0200153697740840e-12  7.7060395793540183e-13  1.4856544705235064e-13  3.0905575269228665e-14  1.1180832245806800e-14  3.2956633204561768e-15  8.3124883094356329e-16  1.9406792658465434e-16  4.3566179601822405e-17  9.5782310735715815e-18  2.0817634858950011e-18  4.4954098392750006e-19  9.6717736635755230e-20  2.0764577072577333e-20  4.4525539425905604e-21  9.5408731432647638e-22  2.0435678008814086e-22  4.3760949614889736e-23  9.3696732544314139e-24  2.0059677150365402e-24  4.2926780887288419e-25  9.0025663103811947e-26  0.0000000000000000e+00  6.0000000000000002e-05  3.5262353410750767e-05  3.0449390346177883e-05  2.9493202439563834e-05  2.9297689188987012e-05  2.9256975107368015e-05  2.9248401020339259e-05  2.9246583164046672e-05  2.9246196203492520e-05  2.9246113638636032e-05  2.9246095994658231e-05  2.9246092186031806e-05  2.9246090964956661e-05  2.9246086092769396e-05  2.9246032735625097e-05  2.9245428009381404e-05  2.9238573859984065e-05  2.9160991656537365e-05  2.8280596023202612e-05  1.3382904075140885e-05  2.6397036267811746e-06  4.9972780872941007e-07  9.3601139680087141e-08  1.7538273245584311e-08  3.2974651948930451e-09  6.2260707558712885e-10  1.1807214467019624e-10  2.2488247572156517e-11  4.3012933243016738e-12  8.2614546349879169e-13  1.5954073125608618e-13  3.2986768977912199e-14  1.1598908338340590e-14  3.3837463374602285e-15  8.4803775289839061e-16  1.9730416533489323e-16  4.4210716911167826e-17  9.7100698012378033e-18  2.1092180558485583e-18  4.5532249731449705e-19  9.7943482010935768e-20  2.1025492167698852e-20  4.5082239664082071e-21  9.6598170269511092e-22  2.0690016347643397e-22  4.4305057110673983e-23  9.4861061646046609e-24  2.0308870359934469e-24  4.3460170885412046e-25  9.1161655925634691e-26  0.0000000000000000e+00  6.0000000000000002e-05  3.5363620447581902e-05  3.0526961421373366e-05  2.9563138600522906e-05  2.9365716485098879e-05  2.9324560363054063e-05  2.9315887518465658e-05  2.9314048008587348e-05  2.9313656348968233e-05  2.9313572770270332e-05  2.9313554908295294e-05  2.9313551053101389e-05  2.9313549824547415e-05  2.9313544979071865e-05  2.9313491946870470e-05  2.9312890876625396e-05  2.9306077644590607e-05  2.9228950747990456e-05  2.8354605111506746e-05  1.3472170787503569e-05  2.6888759892458418e-06  5.1581512234288562e-07  9.7518197718502222e-08  1.8392731617534404e-08  3.4750469467699645e-09  6.5865049963399145e-10  1.2529970984904132e-10  2.3928786058621339e-11  4.5876632052333872e-12  8.8304612282123357e-13  1.7085089845312438e-13  3.5172876866494609e-14  1.2054846777660915e-14  3.4780270904478201e-15  8.6572133947023252e-16  2.0067167137550766e-16  4.4875645542833675e-17  9.8453071563050222e-18  2.1372797149048622e-18  4.6121898496082345e-19  9.9191976633484409e-20  2.1291045544254440e-20  4.5648581087009422e-21  9.7807889969302019e-22  2.0948651700236910e-22  4.4858307883148864e-23  9.6044894945328322e-24  2.0562230241449464e-24  4.4002463147331613e-25  9.2315468438850414e-26  0.0000000000000000e+00  6.0000000000000002e-05  3.5458148096776580e-05  3.0600226530703035e-05  2.9628996190279886e-05  2.9429678431359467e-05  2.9388078674188136e-05  2.9379306181582676e-05  2.9377444759273081e-05  2.9377048336697936e-05  2.9376963729427341e-05  2.9376945646170691e-05  2.9376941743691664e-05  2.9376940507522588e-05  2.9376935688940691e-05  2.9376882983970254e-05  2.9376285593111790e-05  2.9369513500141567e-05  2.9292842402334470e-05  2.8424500069834087e-05  1.3549172167682277e-05  2.7304676638964184e-06  5.3019515410158288e-07  1.0116927846212830e-07  1.9210773871165008e-08  3.6482266821221319e-09  6.9428371973063859e-10  1.3252200695266252e-10  2.5381032459790517e-11  4.8785492726395089e-12  9.4123111169032049e-13  1.8248884875364032e-13  3.7461526921384023e-14  1.2549155130122354e-14  3.5784779180966996e-15  8.8428419077876889e-16  2.0416751591910497e-16  4.5560440842379832e-17  9.9838456592363494e-18  2.1659295178535736e-18  4.6722663311490371e-19  1.0046243426592985e-19  2.1561072647276430e-20  4.6224216101438790e-21  9.9037152245230862e-22  2.1211426743474952e-22  4.5420366048480984e-23  9.7247514532144176e-24  2.0819603249691160e-24  4.4553329199891067e-25  9.3486460968366242e-26  0.0000000000000000e+00  6.0000000000000002e-05  3.5546459109518572e-05  3.0669576761014722e-05  2.9691161680911248e-05  2.9489961391373156e-05  2.9447916484186920e-05  2.9439043482608204e-05  2.9437159896867729e-05  2.9436758649314896e-05  2.9436672999164160e-05  2.9436654691435017e-05  2.9436650740972898e-05  2.9436649497048606e-05  2.9436644705450132e-05  2.9436592328951080e-05  2.9435998629126039e-05  2.9429267763847630e-05  2.9353051776492292e-05  2.8490592735427672e-05  1.3616182779152563e-05  2.7656973634677908e-06  5.4296921577362755e-07  1.0455080185800123e-07  1.9989677622390782e-08  3.8163444765599727e-09  7.2937851974505398e-10  1.3971663228399140e-10  2.6841379760156102e-11  5.1734244754430337e-12  1.0006354270086399e-12  1.9444966870077377e-13  3.9851700660805605e-14  1.3082370304336575e-14  3.6850564049385768e-15  9.0370917276618652e-16  2.0778871539649136e-16  4.6264609759612537e-17  1.0125600140964020e-17  2.1951518498000890e-18  4.7334242755588839e-19  1.0175425060069889e-19  2.1835449207168801e-20  4.6808885018378825e-21  1.0028540905726945e-21  2.1478225137666963e-22  4.5990983775845552e-23  9.8468391388985452e-24  2.1080876325898354e-24  4.5112527398514535e-25  9.4674184571508030e-26  0.0000000000000000e+00  6.0000000000000002e-05  3.5629079124183565e-05  3.0735385644365132e-05  2.9750000532067772e-05  2.9546930158889282e-05  2.9504438571426691e-05  2.9495464212016898e-05  2.9493558216335755e-05  2.9493152082980328e-05  2.9493065375927457e-05  2.9493046840599711e-05  2.9493042841470335e-05  2.9493041589647193e-05  2.9493036825048501e-05  2.9492984777430275e-05  2.9492394771004509e-05  2.9485705117482367e-05  2.9409942635398671e-05  2.8553196599533751e-05  1.3675025788230247e-05  2.7956208597669184e-06  5.5425940366857914e-07  1.0766442747049279e-07  2.0727529671816619e-08  3.9788531789339878e-09  7.6382235145486530e-10  1.4686346710741094e-10  2.8306585839954317e-11  5.4718271984289786e-12  1.0612071644909182e-12  2.0673129252706166e-13  4.2343684613064337e-14  1.3655062363041050e-14  3.7977037880535649e-15  9.2397723502031591e-16  2.1153217853547626e-16  4.6987676474934911e-17  1.0270494237941164e-17  2.2249336208202663e-18  4.7956397428350685e-19  1.0306696401374042e-19  2.2114082731061467e-20  4.7402397705390538e-21  1.0155226316959860e-21  2.1748963062503087e-22  4.6569983142869558e-23  9.9707146517033250e-24  2.1345968571958726e-24  4.5679885083383073e-25  9.5878341257490124e-26  0.0000000000000000e+00  6.0000000000000002e-05  3.5706531171707218e-05  3.0798010866619208e-05  2.9805859323024746e-05  2.9600930169887659e-05  2.9557990276550758e-05  2.9548913708182695e-05  2.9546985057806749e-05  2.9546573978477951e-05  2.9546486200675476e-05  2.9546467434664656e-05  2.9546463386192805e-05  2.9546462126324073e-05  2.9546457388683072e-05  2.9546405669697529e-05  2.9545819351726453e-05  2.9539170812394017e-05  2.9463859527235464e-05  2.8612624555859548e-05  1.3727173488937754e-05  2.8211398334703260e-06  5.6419981291215283e-07  1.1051645342336035e-07  2.1423219265574289e-08  4.1353264853310116e-09  7.9752060995149814e-10  1.5394516868844417e-10  2.9773872263194864e-11  5.7733808419984330e-12  1.1229114215738703e-12  2.1933529167352714e-13  4.4939085941834013e-14  1.4267835130126128e-14  3.9163434128182516e-15  9.4506727184463239e-16  2.1539466623978101e-16  4.7729171266590980e-17  1.0418457645397846e-17  2.2552636310179538e-18  4.8588935769532516e-19  1.0440022446865178e-19  2.2396905754555599e-20  4.8004619026757522e-21  1.0283743684087903e-21  2.2023582496995914e-22  4.7157241728155882e-23  1.0096352006693559e-23  2.1614824638742951e-24  4.6255284408526682e-25  9.7098752469597617e-26  0.0000000000000000e+00  6.0000000000000002e-05  3.5779331931659863e-05  3.0857795953492921e-05  2.9859067789755448e-05  2.9652289604981550e-05  2.9608899617174624e-05  2.9599719974521583e-05  2.9597768424216217e-05  2.9597352338957975e-05  2.9597263476643906e-05  2.9597244476888662e-05  2.9597240378404337e-05  2.9597239110340372e-05  2.959723439956861