<?xml version="1.0"?>
<VTKFile type="UnstructuredGrid"  version="0.1"  >
<UnstructuredGrid>
<Piece  NumberOfPoints="2601" NumberOfCells="5000">
<Points>
<DataArray  type="Float64"  NumberOfComponents="3"  format="ascii">-1 0 0  -0.96 0 0  -0.92 0 0  -0.88 0 0  -0.84 0 0  -0.8 0 0  -0.76 0 0  -0.72 0 0  -0.6799999999999999 0 0  -0.64 0 0  -0.6 0 0  -0.5600000000000001 0 0  -0.52 0 0  -0.48 0 0  -0.4399999999999999 0 0  -0.4 0 0  -0.36 0 0  -0.32 0 0  -0.28 0 0  -0.24 0 0  -0.2 0 0  -0.16 0 0  -0.12 0 0  -0.07999999999999996 0 0  -0.04000000000000004 0 0  0 0 0  0.04000000000000004 0 0  0.08000000000000007 0 0  0.1200000000000001 0 0  0.1599999999999999 0 0  0.2 0 0  0.24 0 0  0.28 0 0  0.3200000000000001 0 0  0.3600000000000001 0 0  0.3999999999999999 0 0  0.4399999999999999 0 0  0.48 0 0  0.52 0 0  0.5600000000000001 0 0  0.6000000000000001 0 0  0.6399999999999999 0 0  0.6799999999999999 0 0  0.72 0 0  0.76 0 0  0.8 0 0  0.8400000000000001 0 0  0.8799999999999999 0 0  0.9199999999999999 0 0  0.96 0 0  1 0 0  -1 0.016 0  -0.96 0.016 0  -0.92 0.016 0  -0.88 0.016 0  -0.84 0.016 0  -0.8 0.016 0  -0.76 0.016 0  -0.72 0.016 0  -0.6799999999999999 0.016 0  -0.64 0.016 0  -0.6 0.016 0  -0.5600000000000001 0.016 0  -0.52 0.016 0  -0.48 0.016 0  -0.4399999999999999 0.016 0  -0.4 0.016 0  -0.36 0.016 0  -0.32 0.016 0  -0.28 0.016 0  -0.24 0.016 0  -0.2 0.016 0  -0.16 0.016 0  -0.12 0.016 0  -0.07999999999999996 0.016 0  -0.04000000000000004 0.016 0  0 0.016 0  0.04000000000000004 0.016 0  0.08000000000000007 0.016 0  0.1200000000000001 0.016 0  0.1599999999999999 0.016 0  0.2 0.016 0  0.24 0.016 0  0.28 0.016 0  0.3200000000000001 0.016 0  0.3600000000000001 0.016 0  0.3999999999999999 0.016 0  0.4399999999999999 0.016 0  0.48 0.016 0  0.52 0.016 0  0.5600000000000001 0.016 0  0.6000000000000001 0.016 0  0.6399999999999999 0.016 0  0.6799999999999999 0.016 0  0.72 0.016 0  0.76 0.016 0  0.8 0.016 0  0.8400000000000001 0.016 0  0.8799999999999999 0.016 0  0.9199999999999999 0.016 0  0.96 0.016 0  1 0.016 0  -1 0.032 0  -0.96 0.032 0  -0.92 0.032 0  -0.88 0.032 0  -0.84 0.032 0  -0.8 0.032 0  -0.76 0.032 0  -0.72 0.032 0  -0.6799999999999999 0.032 0  -0.64 0.032 0  -0.6 0.032 0  -0.5600000000000001 0.032 0  -0.52 0.032 0  -0.48 0.032 0  -0.4399999999999999 0.032 0  -0.4 0.032 0  -0.36 0.032 0  -0.32 0.032 0  -0.28 0.032 0  -0.24 0.032 0  -0.2 0.032 0  -0.16 0.032 0  -0.12 0.032 0  -0.07999999999999996 0.032 0  -0.04000000000000004 0.032 0  0 0.032 0  0.04000000000000004 0.032 0  0.08000000000000007 0.032 0  0.1200000000000001 0.032 0  0.1599999999999999 0.032 0  0.2 0.032 0  0.24 0.032 0  0.28 0.032 0  0.3200000000000001 0.032 0  0.3600000000000001 0.032 0  0.3999999999999999 0.032 0  0.4399999999999999 0.032 0  0.48 0.032 0  0.52 0.032 0  0.5600000000000001 0.032 0  0.6000000000000001 0.032 0  0.6399999999999999 0.032 0  0.6799999999999999 0.032 0  0.72 0.032 0  0.76 0.032 0  0.8 0.032 0  0.8400000000000001 0.032 0  0.8799999999999999 0.032 0  0.9199999999999999 0.032 0  0.96 0.032 0  1 0.032 0  -1 0.04800000000000001 0  -0.96 0.04800000000000001 0  -0.92 0.04800000000000001 0  -0.88 0.04800000000000001 0  -0.84 0.04800000000000001 0  -0.8 0.04800000000000001 0  -0.76 0.04800000000000001 0  -0.72 0.04800000000000001 0  -0.6799999999999999 0.04800000000000001 0  -0.64 0.04800000000000001 0  -0.6 0.04800000000000001 0  -0.5600000000000001 0.04800000000000001 0  -0.52 0.04800000000000001 0  -0.48 0.04800000000000001 0  -0.4399999999999999 0.04800000000000001 0  -0.4 0.04800000000000001 0  -0.36 0.04800000000000001 0  -0.32 0.04800000000000001 0  -0.28 0.04800000000000001 0  -0.24 0.04800000000000001 0  -0.2 0.04800000000000001 0  -0.16 0.04800000000000001 0  -0.12 0.04800000000000001 0  -0.07999999999999996 0.04800000000000001 0  -0.04000000000000004 0.04800000000000001 0  0 0.04800000000000001 0  0.04000000000000004 0.04800000000000001 0  0.08000000000000007 0.04800000000000001 0  0.1200000000000001 0.04800000000000001 0  0.1599999999999999 0.04800000000000001 0  0.2 0.04800000000000001 0  0.24 0.04800000000000001 0  0.28 0.04800000000000001 0  0.3200000000000001 0.04800000000000001 0  0.3600000000000001 0.04800000000000001 0  0.3999999999999999 0.04800000000000001 0  0.4399999999999999 0.04800000000000001 0  0.48 0.04800000000000001 0  0.52 0.04800000000000001 0  0.5600000000000001 0.04800000000000001 0  0.6000000000000001 0.04800000000000001 0  0.6399999999999999 0.04800000000000001 0  0.6799999999999999 0.04800000000000001 0  0.72 0.04800000000000001 0  0.76 0.04800000000000001 0  0.8 0.04800000000000001 0  0.8400000000000001 0.04800000000000001 0  0.8799999999999999 0.04800000000000001 0  0.9199999999999999 0.04800000000000001 0  0.96 0.04800000000000001 0  1 0.04800000000000001 0  -1 0.064 0  -0.96 0.064 0  -0.92 0.064 0  -0.88 0.064 0  -0.84 0.064 0  -0.8 0.064 0  -0.76 0.064 0  -0.72 0.064 0  -0.6799999999999999 0.064 0  -0.64 0.064 0  -0.6 0.064 0  -0.5600000000000001 0.064 0  -0.52 0.064 0  -0.48 0.064 0  -0.4399999999999999 0.064 0  -0.4 0.064 0  -0.36 0.064 0  -0.32 0.064 0  -0.28 0.064 0  -0.24 0.064 0  -0.2 0.064 0  -0.16 0.064 0  -0.12 0.064 0  -0.07999999999999996 0.064 0  -0.04000000000000004 0.064 0  0 0.064 0  0.04000000000000004 0.064 0  0.08000000000000007 0.064 0  0.1200000000000001 0.064 0  0.1599999999999999 0.064 0  0.2 0.064 0  0.24 0.064 0  0.28 0.064 0  0.3200000000000001 0.064 0  0.3600000000000001 0.064 0  0.3999999999999999 0.064 0  0.4399999999999999 0.064 0  0.48 0.064 0  0.52 0.064 0  0.5600000000000001 0.064 0  0.6000000000000001 0.064 0  0.6399999999999999 0.064 0  0.6799999999999999 0.064 0  0.72 0.064 0  0.76 0.064 0  0.8 0.064 0  0.8400000000000001 0.064 0  0.8799999999999999 0.064 0  0.9199999999999999 0.064 0  0.96 0.064 0  1 0.064 0  -1 0.08 0  -0.96 0.08 0  -0.92 0.08 0  -0.88 0.08 0  -0.84 0.08 0  -0.8 0.08 0  -0.76 0.08 0  -0.72 0.08 0  -0.6799999999999999 0.08 0  -0.64 0.08 0  -0.6 0.08 0  -0.5600000000000001 0.08 0  -0.52 0.08 0  -0.48 0.08 0  -0.4399999999999999 0.08 0  -0.4 0.08 0  -0.36 0.08 0  -0.32 0.08 0  -0.28 0.08 0  -0.24 0.08 0  -0.2 0.08 0  -0.16 0.08 0  -0.12 0.08 0  -0.07999999999999996 0.08 0  -0.04000000000000004 0.08 0  0 0.08 0  0.04000000000000004 0.08 0  0.08000000000000007 0.08 0  0.1200000000000001 0.08 0  0.1599999999999999 0.08 0  0.2 0.08 0  0.24 0.08 0  0.28 0.08 0  0.3200000000000001 0.08 0  0.3600000000000001 0.08 0  0.3999999999999999 0.08 0  0.4399999999999999 0.08 0  0.48 0.08 0  0.52 0.08 0  0.5600000000000001 0.08 0  0.6000000000000001 0.08 0  0.6399999999999999 0.08 0  0.6799999999999999 0.08 0  0.72 0.08 0  0.76 0.08 0  0.8 0.08 0  0.8400000000000001 0.08 0  0.8799999999999999 0.08 0  0.9199999999999999 0.08 0  0.96 0.08 0  1 0.08 0  -1 0.09600000000000002 0  -0.96 0.09600000000000002 0  -0.92 0.09600000000000002 0  -0.88 0.09600000000000002 0  -0.84 0.09600000000000002 0  -0.8 0.09600000000000002 0  -0.76 0.09600000000000002 0  -0.72 0.09600000000000002 0  -0.6799999999999999 0.09600000000000002 0  -0.64 0.09600000000000002 0  -0.6 0.09600000000000002 0  -0.5600000000000001 0.09600000000000002 0  -0.52 0.09600000000000002 0  -0.48 0.09600000000000002 0  -0.4399999999999999 0.09600000000000002 0  -0.4 0.09600000000000002 0  -0.36 0.09600000000000002 0  -0.32 0.09600000000000002 0  -0.28 0.09600000000000002 0  -0.24 0.09600000000000002 0  -0.2 0.09600000000000002 0  -0.16 0.09600000000000002 0  -0.12 0.09600000000000002 0  -0.07999999999999996 0.09600000000000002 0  -0.04000000000000004 0.09600000000000002 0  0 0.09600000000000002 0  0.04000000000000004 0.09600000000000002 0  0.08000000000000007 0.09600000000000002 0  0.1200000000000001 0.09600000000000002 0  0.1599999999999999 0.09600000000000002 0  0.2 0.09600000000000002 0  0.24 0.09600000000000002 0  0.28 0.09600000000000002 0  0.3200000000000001 0.09600000000000002 0  0.3600000000000001 0.09600000000000002 0  0.3999999999999999 0.09600000000000002 0  0.4399999999999999 0.09600000000000002 0  0.48 0.09600000000000002 0  0.52 0.09600000000000002 0  0.5600000000000001 0.09600000000000002 0  0.6000000000000001 0.09600000000000002 0  0.6399999999999999 0.09600000000000002 0  0.6799999999999999 0.09600000000000002 0  0.72 0.09600000000000002 0  0.76 0.09600000000000002 0  0.8 0.09600000000000002 0  0.8400000000000001 0.09600000000000002 0  0.8799999999999999 0.09600000000000002 0  0.9199999999999999 0.09600000000000002 0  0.96 0.09600000000000002 0  1 0.09600000000000002 0  -1 0.112 0  -0.96 0.112 0  -0.92 0.112 0  -0.88 0.112 0  -0.84 0.112 0  -0.8 0.112 0  -0.76 0.112 0  -0.72 0.112 0  -0.6799999999999999 0.112 0  -0.64 0.112 0  -0.6 0.112 0  -0.5600000000000001 0.112 0  -0.52 0.112 0  -0.48 0.112 0  -0.4399999999999999 0.112 0  -0.4 0.112 0  -0.36 0.112 0  -0.32 0.112 0  -0.28 0.112 0  -0.24 0.112 0  -0.2 0.112 0  -0.16 0.112 0  -0.12 0.112 0  -0.07999999999999996 0.112 0  -0.04000000000000004 0.112 0  0 0.112 0  0.04000000000000004 0.112 0  0.08000000000000007 0.112 0  0.1200000000000001 0.112 0  0.1599999999999999 0.112 0  0.2 0.112 0  0.24 0.112 0  0.28 0.112 0  0.3200000000000001 0.112 0  0.3600000000000001 0.112 0  0.3999999999999999 0.112 0  0.4399999999999999 0.112 0  0.48 0.112 0  0.52 0.112 0  0.5600000000000001 0.112 0  0.6000000000000001 0.112 0  0.6399999999999999 0.112 0  0.6799999999999999 0.112 0  0.72 0.112 0  0.76 0.112 0  0.8 0.112 0  0.8400000000000001 0.112 0  0.8799999999999999 0.112 0  0.9199999999999999 0.112 0  0.96 0.112 0  1 0.112 0  -1 0.128 0  -0.96 0.128 0  -0.92 0.128 0  -0.88 0.128 0  -0.84 0.128 0  -0.8 0.128 0  -0.76 0.128 0  -0.72 0.128 0  -0.6799999999999999 0.128 0  -0.64 0.128 0  -0.6 0.128 0  -0.5600000000000001 0.128 0  -0.52 0.128 0  -0.48 0.128 0  -0.4399999999999999 0.128 0  -0.4 0.128 0  -0.36 0.128 0  -0.32 0.128 0  -0.28 0.128 0  -0.24 0.128 0  -0.2 0.128 0  -0.16 0.128 0  -0.12 0.128 0  -0.07999999999999996 0.128 0  -0.04000000000000004 0.128 0  0 0.128 0  0.04000000000000004 0.128 0  0.08000000000000007 0.128 0  0.1200000000000001 0.128 0  0.1599
[...]
<PointData  Scalars="f_100"> 
<DataArray  type="Float64"  Name="f_100"  format="ascii">6.0000000000000002e-05  5.4287474635197373e-05  5.3034055320641244e-05  5.2635387050984843e-05  5.2496117627833242e-05  5.2429571106428908e-05  5.2372467943759194e-05  5.2298936870370813e-05  5.2193397759022015e-05  5.2042014801034741e-05  5.1830193011906530e-05  5.1542201055288536e-05  5.1161691855735876e-05  5.0672703854512839e-05  5.0060908666567390e-05  4.9314594224918060e-05  4.8422208747321063e-05  4.7340206950831672e-05  4.5794551187280573e-05  3.7385830651210760e-05  2.7343461237056400e-05  2.2682669513817366e-05  1.9471360615699523e-05  1.7066947694195917e-05  1.5197802425494324e-05  1.3711614325765432e-05  1.2513789208775190e-05  1.1552191750312569e-05  1.0836339630297353e-05  1.0531447109927278e-05  1.1286746002902825e-05  1.5778953299683557e-05  2.2221607099646579e-05  2.3549674510258209e-05  2.3069663078279301e-05  2.1945399378581680e-05  2.0581261978055045e-05  1.9108266408637583e-05  1.7574563138945775e-05  1.6006536478086936e-05  1.4427014093853340e-05  1.2859679306873649e-05  1.1329030144633310e-05  9.8589266643575571e-06  8.4706711066561533e-06  7.1805033017401782e-06  5.9947308793081034e-06  4.8958500952374563e-06  3.7980592445312202e-06  2.4113949660903027e-06  0.0000000000000000e+00  6.0000000000000002e-05  5.4561558609603698e-05  5.3301427765817380e-05  5.2899756355454392e-05  5.2759502756340853e-05  5.2692588319134284e-05  5.2635270441403640e-05  5.2561509420559684e-05  5.2455642584258588e-05  5.2303770646811384e-05  5.2091233048428909e-05  5.1802225015919915e-05  5.1420318453018911e-05  5.0929466648595972e-05  5.0315257742516120e-05  4.9565907206342706e-05  4.8669829024390753e-05  4.7583772363474808e-05  4.6011522669769014e-05  3.8359320064872775e-05  2.8706085623984542e-05  2.3816654220935906e-05  2.0432146401946820e-05  1.7899840629808126e-05  1.5932487967256567e-05  1.4368891927413763e-05  1.3108819804147568e-05  1.2096129829811872e-05  1.1337007574510875e-05  1.0992872998918521e-05  1.1706602238081815e-05  1.5943947761522959e-05  2.2321053783682256e-05  2.3670747844955120e-05  2.3191113401982688e-05  2.2062226297742101e-05  2.0691746320116749e-05  1.9211678000310577e-05  1.7670491943581928e-05  1.6094710189526936e-05  1.4507263468486635e-05  1.2931944175190448e-05  1.1393371320897142e-05  9.9155323659603115e-06  8.5198548040609418e-06  7.2226937946678766e-06  6.0304588511298866e-06  4.9257415334596898e-06  3.8228556516145500e-06  2.4320754596817870e-06  0.0000000000000000e+00  6.0000000000000002e-05  5.4831597282801239e-05  5.3567979582065817e-05  5.3164769133395856e-05  5.3023992657688304e-05  5.2956855813176761e-05  5.2899368836380291e-05  5.2825391651579572e-05  5.2719200439876937e-05  5.2566839055499076e-05  5.2353583270771341e-05  5.2063555260104869e-05  5.1680245784319810e-05  5.1187522709753522e-05  5.0570890640367662e-05  4.9818494829131652e-05  4.8918737020708489e-05  4.7828850699395310e-05  4.6236143061946664e-05  3.9249709997062651e-05  3.0057368336392315e-05  2.4947949060104028e-05  2.1400896079422809e-05  1.8745849790932193e-05  1.6682944760562514e-05  1.5043315023023894e-05  1.3721610448223791e-05  1.2657899362626230e-05  1.1855002646455299e-05  1.1470008885280758e-05  1.2135494589724153e-05  1.6144842892653440e-05  2.2435289441974347e-05  2.3797223143247860e-05  2.3314719384791453e-05  2.2180146039675115e-05  2.0802966044189273e-05  1.9315688799837985e-05  1.7766952098686308e-05  1.6183367938766010e-05  1.4587955368907970e-05  1.3004611523245451e-05  1.1458075389259396e-05  9.9724619155068838e-06  8.5693243092754613e-06  7.2651336711917166e-06  6.0664020771611852e-06  4.9558162818212409e-06  3.8477940632411477e-06  2.4527141092543230e-06  0.0000000000000000e+00  6.0000000000000002e-05  5.5096794795958054e-05  5.3833670087318394e-05  5.3430418543631490e-05  5.3289589727876711e-05  5.3222378907365492e-05  5.3164769397528979e-05  5.3090590168980134e-05  5.2984078085148718e-05  5.2831226893304170e-05  5.2617250647052377e-05  5.2326198862883829e-05  5.1941481034423330e-05  5.1446879326380009e-05  5.0827814725746977e-05  5.0072364420398905e-05  4.9168939300024731e-05  4.8075431317541392e-05  4.6467931206271910e-05  4.0068295292610253e-05  3.1363338564983670e-05  2.6070451394668076e-05  2.2374959585894275e-05  1.9603609159627185e-05  1.7448526097743535e-05  1.5734689271393365e-05  1.4352268088670669e-05  1.3237819245030969e-05  1.2390815987072828e-05  1.1963569465961663e-05  1.2575475546655195e-05  1.6377206021212740e-05  2.2564549334492133e-05  2.3929181361348358e-05  2.3440514673002797e-05  2.2299171777458815e-05  2.0914927694650435e-05  1.9420303155251245e-05  1.7863947104661080e-05  1.6272512759332382e-05  1.4669092446925186e-05  1.3077683624132634e-05  1.1523144233307633e-05  1.0029716803380095e-05  8.6190807250540928e-06  7.3078236481383755e-06  6.1025608423025956e-06  4.9860739895614820e-06  3.8728730960732163e-06  2.4733047889543631e-06  0.0000000000000000e+00  6.0000000000000002e-05  5.5356592990810064e-05  5.4098474824711128e-05  5.3696701876935067e-05  5.3556297678526672e-05  5.3489163351120427e-05  5.3431478540147230e-05  5.3357111628386430e-05  5.3250282290311284e-05  5.3096941014188922e-05  5.2882242112845553e-05  5.2590162845629569e-05  5.2204031312027722e-05  5.1707543687972964e-05  5.1086037244022948e-05  5.0327523171460013e-05  4.9420442293286554e-05  4.8323508004590967e-05  4.6706401777655236e-05  4.0825107933951134e-05  3.2607613698114409e-05  2.7179778705430451e-05  2.3352064821976558e-05  2.0471940104988401e-05  1.8228709074483925e-05  1.6442914253550171e-05  1.5000975612364828e-05  1.3836268968753519e-05  1.2944976973823383e-05  1.2474257006158562e-05  1.3028275497329629e-05  1.6637878155838350e-05  2.2709005506661684e-05  2.4066682684482685e-05  2.3568524081861908e-05  2.2419313787448607e-05  2.1027636861522083e-05  1.9525525070857223e-05  1.7961480314965857e-05  1.6362147611387601e-05  1.4750677321186962e-05  1.3151162751091143e-05  1.1588579769648876e-05  1.0087298585813381e-05  8.6691252521021160e-06  7.3507645731920208e-06  6.1389356060499635e-06  5.0165145712503776e-06  3.8980918662997827e-06  2.4938449022977814e-06  0.0000000000000000e+00  6.0000000000000002e-05  5.5610628113288362e-05  5.4362383448921851e-05  5.3963620328360685e-05  5.3824121468712135e-05  5.3757215304433293e-05  5.3699502821933696e-05  5.3624962737644299e-05  5.3517819842193133e-05  5.3363988268507167e-05  5.3148564583052381e-05  5.2855454191538717e-05  5.2467903669158659e-05  5.1969522908539457e-05  5.1345565347229762e-05  5.0583978165261903e-05  4.9673252302114988e-05  4.8573077635110076e-05  4.6951078231241531e-05  4.1528930503578750e-05  3.3784034952631955e-05  2.8272426013439792e-05  2.4330201575516779e-05  2.1349798474401244e-05  1.9023060852088336e-05  1.7167960332509380e-05  1.5667976015117106e-05  1.4453679437022756e-05  1.3518053673556944e-05  1.3002783290865627e-05  1.3495388505295075e-05  1.6924623737929571e-05  2.2868768329852044e-05  2.4209766860029313e-05  2.3698764041432128e-05  2.2540579616032536e-05  2.1141098243276615e-05  1.9631358236922432e-05  1.8059554954308291e-05  1.6452275394104701e-05  1.4832712584606352e-05  1.3225051179600578e-05  1.1654383944233901e-05  1.0145208875270226e-05  8.7194591735663204e-06  7.3939574033239575e-06  6.1755269730318814e-06  5.0471381623050806e-06  3.9234499142797326e-06  2.5143347009818983e-06  0.0000000000000000e+00  6.0000000000000002e-05  5.5858694884349449e-05  5.4625398238173449e-05  5.4231178812374734e-05  5.4093067248545388e-05  5.4026541321296213e-05  5.3968848939648806e-05  5.3894150258611329e-05  5.3786697548878918e-05  5.3632375510151651e-05  5.3416224961716984e-05  5.3122079858426387e-05  5.2733105117192774e-05  5.2232824045906033e-05  5.1606406116279379e-05  5.0841736399117069e-05  4.9927375504711023e-05  4.8824139101958005e-05  4.7201501877311517e-05  4.2187382347351311e-05  3.4892256366140431e-05  2.9345521464899776e-05  2.5307588506116540e-05  2.2236255853722196e-05  1.9831226180529659e-05  1.7909860097176583e-05  1.6353566816581549e-05  1.5090530424349545e-05  1.4110655279379915e-05  1.3549883041779991e-05  1.3978136889792249e-05  1.7235879891667370e-05  2.3043889858127986e-05  2.4358453443975977e-05  2.3831242969906099e-05  2.2662974217578714e-05  2.1255315698739010e-05  1.9737806054175938e-05  1.8158174133635064e-05  1.6542898955850482e-05  1.4915200810450881e-05  1.3299351189077537e-05  1.1720558729300666e-05  1.0203449332495965e-05  8.7700838422459112e-06  7.4374031870257904e-06  6.2123356687608965e-06  5.0779450823459596e-06  3.9489471429168841e-06  2.5347767242793846e-06  0.0000000000000000e+00  6.0000000000000002e-05  5.6100716734272066e-05  5.4887533048899208e-05  5.4499385808391190e-05  5.4363142311477070e-05  5.4297148335685740e-05  5.4239523726270665e-05  5.4164681008625480e-05  5.4056922243573385e-05  5.3902109602471860e-05  5.3685230150143740e-05  5.3390046789298817e-05  5.2999642640088583e-05  5.2497454117655090e-05  5.1868566579297156e-05  5.1100804803569581e-05  5.0182817963149777e-05  4.9076692474135964e-05  4.7457237918318554e-05  4.2807037890075692e-05  3.5935115254405928e-05  3.0396796046386596e-05  2.6282672195450622e-05  2.3130498160600648e-05  2.0652926324435731e-05  1.8668707772853036e-05  1.7058100118549012e-05  1.5747351699147229e-05  1.4723435589919404e-05  1.4116322689482528e-05  1.4477720536506090e-05  1.7570576708230128e-05  2.3234367999358865e-05  2.4512741986562529e-05  2.3965961591665918e-05  2.2786500070669503e-05  2.1370292290667751e-05  1.9844871654254026e-05  1.8257340862556318e-05  1.6634021102585246e-05  1.4998144557347864e-05  1.3374065064253155e-05  1.1787106120835353e-05  1.0262021659953082e-05  8.8210006700478921e-06  7.4811030496762539e-06  6.2493625196749310e-06  5.1089358049975636e-06  3.9745837670337188e-06  2.5551753389510022e-06  0.0000000000000000e+00  6.0000000000000002e-05  5.6336721191715956e-05  5.5148812575521594e-05  5.4768253227383820e-05  5.4634355052881077e-05  5.4569043649371022e-05  5.4511534148470233e-05  5.4436561861680010e-05  5.4328500787796430e-05  5.4173197423176153e-05  5.3955587053616433e-05  5.3659361921095641e-05  5.3267523205317826e-05  5.2763420114283710e-05  5.2132053726766229e-05  5.1361190258077561e-05  5.0439585631357945e-05  4.9330738344460099e-05  4.7717879139229349e-05  4.3393554090410208e-05  3.6917076757364298e-05  3.1424602128584375e-05  2.7254137908224601e-05  2.4031832991774415e-05  2.1487964124401798e-05  1.9444663037114835e-05  1.7781985828776706e-05  1.6424726217832669e-05  1.5357097085262530e-05  1.4702906748819002e-05  1.4995255065611854e-05  1.7928008313945691e-05  2.3440150857401582e-05  2.4672612180400387e-05  2.4102913214329708e-05  2.2911157278349088e-05  2.1486030323097393e-05  1.9952557916997200e-05  1.8357058059719949e-05  1.6725644604817938e-05  1.5081546373407738e-05  1.3449195096295914e-05  1.1854028136466132e-05  1.0320927596401001e-05  8.8722111192942344e-06  7.5250581814896435e-06  6.2866084367087419e-06  5.1401109329871936e-06  4.0003602715555260e-06  2.5755363629115109e-06  0.0000000000000000e+00  6.0000000000000002e-05  5.6566819582377863e-05  5.5409271813079712e-05  5.5037796292540324e-05  5.4906714932982071e-05  5.4842234920961408e-05  5.4784887304266238e-05  5.4709799749330075e-05  5.4601440074018684e-05  5.4445645868394321e-05  5.4227302586964166e-05  5.3930032191924298e-05  5.3536753772902863e-05  5.3030729010075904e-05  5.2396874524045138e-05  5.1622899604077627e-05  5.0697684363319370e-05  4.9586277334312927e-05  4.7983047812910855e-05  4.3951794560844833e-05  3.7843325270590617e-05  3.2427919779109511e-05  2.8220923703253389e-05  2.4939701188395608e-05  2.2336232351391261e-05  2.0237957315315432e-05  1.8525696712480632e-05  1.7123294540165178e-05  1.6012395395192463e-05  1.5310483072537949e-05  1.5531801794878942e-05  1.8307740301235274e-05  2.3661140845715241e-05  2.4838023991132575e-05  2.4242083976489712e-05  2.3036943656997623e-05  2.1602531374119962e-05  2.0060867485336888e-05  1.8457328561556671e-05  1.6817772203393285e-05  1.5165408799631478e-05  1.3524743583731382e-05  1.1921326813718581e-05  1.0380168912422534e-05  8.9237166955567453e-06  7.5692698275908169e-06  6.3240744017695827e-06  5.1714711775969434e-06  4.0262773767542286e-06  2.5958667586406389e-06  0.0000000000000000e+00  6.0000000000000002e-05  5.6791190329207743e-05  5.5668955647668458e-05  5.5308033428635361e-05  5.5180232442576529e-05  5.5116730155727545e-05  5.5059590420750040e-05  5.4984401661353477e-05  5.4875747027828342e-05  5.4719461856046215e-05  5.4500383679176947e-05  5.4202064547052491e-05  5.3807341302894755e-05  5.3299387772092450e-05  5.2663035921724187e-05  5.1885939655898598e-05  5.0957119921234564e-05  4.9843309727232391e-05  4.8252396270334124e-05  4.4485944130572162e-05  3.8719244673207083e-05  3.3406336165691649e-05  2.9182234147379199e-05  2.5853690152556162e-05  2.3197723802924570e-05  2.1048901506378214e-05  1.9289774545574608e-05  1.7843760010456280e-05  1.6690144070003656e-05  1.5939947689496350e-05  1.6088391627212131e-05  1.8709543240859912e-05  2.3897198336464197e-05  2.5008917787416790e-05  2.4383453075754821e-05  2.3163854817537638e-05  2.1719796325451987e-05  2.0169802778368171e-05  1.8558155129738774e-05  1.6910406614336882e-05  1.5249734372737496e-05  1.3600712833200565e-05  1.1989004208573390e-05  1.0439747406733247e-05  8.9755189417520491e-06  7.6137392798417842e-06  6.3617614566017912e-06  5.2030173416922276e-06  4.0523360091518872e-06  2.6161743846366586e-06  0.0000000000000000e+00  6.0000000000000002e-05  5.7010065261125386e-05  5.5927918520519920e-05  5.5578986156083587e-05  5.5454919070316483e-05  5.5392537695826409e-05  5.5335650851794319e-05  5.5260374646185626e-05  5.5151428609704668e-05  5.4994652328636626e-05  5.4774837277237886e-05  5.4475465943877952e-05  5.4079292761567730e-05  5.3569403367611558e-05  5.2930544864203658e-05  5.2150317209909978e-05  5.1217897983488933e-05  5.0101835207200906e-05  4.8525606491019902e-05  4.4999611265290636e-05  3.9550131418237579e-05  3.4360001579011772e-05  3.0137551776488689e-05  2.6773547553362788e-05  2.4072542281670129e-05  2.1877894560090372e-05  2.0074836972328685e-05  1.8586894459395858e-05  1.7391219616739552e-05  1.6592249606615643e-05  1.6666044429047968e-05  1.9133344936447814e-05  2.4148144717541871e-05  2.5185214484007818e-05  2.4526992984980153e-05  2.3291884241938325e-05  2.1837825389866058e-05  2.0279366003089788e-05  1.8659540457631612e-05  1.7003550532943014e-05  1.5334525627518723e-05  1.3677105160090306e-05  1.2057062394276613e-05  1.0499664903138267e-05  9.0276194332758518e-06  7.6584678701106845e-06  6.3996706936160684e-06  5.2347503056872375e-06  4.0785372769644835e-06  2.6364677951373009e-06  0.0000000000000000e+00  6.0000000000000002e-05  5.7223718433570031e-05  5.6186224127422547e-05  5.5850678986602317e-05  5.5730787270583235e-05  5.5669666210638582e-05  5.5613076075678842e-05  5.5537725811146774e-05  5.5428491816460670e-05  5.5271224255575366e-05  5.5050670349309817e-05  5.4750243356056256e-05  5.4352615126557185e-05  5.3840782770295088e-05  5.3199408296809831e-05  5.2416039052223404e-05  5.1480024152373212e-05  5.0361852681187865e-05  4.8802388991149592e-05  4.5495917807984429e-05  4.0341046304296489e-05  3.5289570855505750e-05  3.1086645398852031e-05  2.7699194674303825e-05  2.4960913971463841e-05  2.2725432580593301e-05  2.0881584846662421e-05  1.9353544292845708e-05  1.8116566786447766e-05  1.7268395769505992e-05  1.7265785065917201e-05  1.9579196176091041e-05  2.4413764800260264e-05  2.5366815709143681e-05  2.4672669663129091e-05  2.3421023357378719e-05  2.1956618137346818e-05  2.0389559165198801e-05  1.8761487175964767e-05  1.7097206637256103e-05  1.5419785098820278e-05  1.3753922889062652e-05  1.2125503460360910e-05  1.0559923248024279e-05  9.0800197739940617e-06  7.7034569647282783e-06  6.4378032483340134e-06  5.2666710159207937e-06  4.1048824491907591e-06  2.6567560799428368e-06  0.0000000000000000e+00  6.0000000000000002e-05  5.7432457045015761e-05  5.6443945127120252e-05  5.6123139318151008e-05  5.6007850431189250e-05  5.5948124686990320e-05  5.5891873692582492e-05  5.5816462322477355e-05  5.5706943682406847e-05  5.5549184635104988e-05  5.5327889887390184e-05  5.5026403776935638e-05  5.4627315391128677e-05  5.4113532965306526e-05  5.3469633171709243e-05  5.2683111965209535e-05  5.1743503961558109e-05  5.0623360168780501e-05  4.9082481223206095e-05  4.5977576602081400e-05  4.1096748102919491e-05  3.6196138829707350e-05  3.2029574951381726e-05  2.8630739006718672e-05  2.5863198931762989e-05  2.3592118268216872e-05  2.1710809931291797e-05  2.0144636893101957e-05  1.8867204106914950e-05  1.7969456275807044e-05  1.7888656972611829e-05  2.0047246227642374e-05  2.4693808564779420e-05  2.5553604005354410e-05  2.4820442766015878e-05  2.3551261609936190e-05  2.2076173520653094e-05  2.0500384079250321e-05  1.8863997857906783e-05  1.7191377591068976e-05  1.5505515323211500e-05  1.3831168354504715e-05  1.2194329511843008e-05  1.0620524308293845e-05  9.1327215929401348e-06  7.7487079599217055e-06  6.4761602931601051e-06  5.2987804750090374e-06  4.1313729376296813e-06  2.6770487375204865e-06  0.0000000000000000e+00  6.0000000000000002e-05  5.7636614101297783e-05  5.6701162841227663e-05  5.6396397327382130e-05  5.6286122840318134e-05  5.6227922419084707e-05  5.6172051421903252e-05  5.6096591405196109e-05  5.5986791280279725e-05  5.5828540495903434e-05  5.5606502909527881e-05  5.5303954222421892e-05  5.4903400567732358e-05  5.4387660953567437e-05  5.3741226452835771e-05  5.2951542733046454e-05  5.2008342883361035e-05  5.0886354744627533e-05  4.9365645649819008e-05  4.6446958091942102e-05  4.1821674826697999e-05  3.7081176473241923e-05  3.2966693069342777e-05  2.9568485905869671e-05  2.6779902548193143e-05  2.4478670587293534e-05  2.2563402880271229e-05  2.0961187289394268e-05  1.9644229658032148e-05  1.8696569882348477e-05  1.8535733924528100e-05  2.0537725388851552e-05  2.4987992257131386e-05  2.5745443071205157e-05  2.4970265861172859e-05  2.3682586539260928e-05  2.2196489900821650e-05  2.0611842378429953e-05  1.8967075023692513e-05  1.7286066046538430e-05  1.5591718840412559e-05  1.3908843900916463e-05  1.2263542668568267e-05  1.0681469969664988e-05  9.1857265415941475e-06  7.7942222780520150e-06  6.5147430322438861e-06  5.3310797338178033e-06  4.1580102812523592e-06  2.6973555756905467e-06  0.0000000000000000e+00  6.0000000000000002e-05  5.7836542536318225e-05  5.6957966934725394e-05  5.6670485858280519e-05  5.6565619652253958e-05  5.6509068998009038e-05  5.6453617099378389e-05  5.6378120342793966e-05  5.6268041721970866e-05  5.6109298898418177e-05  5.5886516461679853e-05  5.5582901733375006e-05  5.5180877690970565e-05  5.4663173755306606e-05  5.4014195120007860e-05  5.3221338146478203e-05  5.2274546335862402e-05  5.1150832521940441e-05  4.9651667613667355e-05  4.6906147202951876e-05  4.2519952116324934e-05  3.7946472155092570e-05  3.3898643850368094e-05  3.0512949259503188e-05  2.7711686846061881e-05  2.5385934590034467e-05  2.3440361458438412e-05  2.1804305070873335e-05  2.0448827087079046e-05  1.9450949821277821e-05  1.9208130521856039e-05  2.1050932664336624e-05  2.5295998866799939e-05  2.5942178050307943e-05  2.5122086650240542e-05  2.3814983855363789e-05  2.2317565073028506e-05  2.0723935524134907e-05  1.9070721144923242e-05  1.7381274646499962e-05  1.5678398194524799e-05  1.3986951883250183e-05  1.2333145064677961e-05  1.0742762135272299e-05  9.2390362916406309e-06  7.8400013645122404e-06  6.5535526972367610e-06  5.3635698847603546e-06  4.1847961324672006e-06  2.7176866351285810e-06  0.0000000000000000e+00  6.0000000000000002e-05  5.8032610545192605e-05  5.7214455070806895e-05  5.6945440306019493e-05  5.6846356851567804e-05  5.6791574300720815e-05  5.6736578673985866e-05  5.6661056476776081e-05  5.6550702159087051e-05  5.6391466935978018e-05  5.6167937619271428e-05  5.5863253377621277e-05  5.5459753820083996e-05  5.494007841302899