<?xml version="1.0"?>
<VTKFile type="UnstructuredGrid"  version="0.1"  >
<UnstructuredGrid>
<Piece  NumberOfPoints="2601" NumberOfCells="5000">
<Points>
<DataArray  type="Float64"  NumberOfComponents="3"  format="ascii">-1 0 0  -0.96 0 0  -0.92 0 0  -0.88 0 0  -0.84 0 0  -0.8 0 0  -0.76 0 0  -0.72 0 0  -0.6799999999999999 0 0  -0.64 0 0  -0.6 0 0  -0.5600000000000001 0 0  -0.52 0 0  -0.48 0 0  -0.4399999999999999 0 0  -0.4 0 0  -0.36 0 0  -0.32 0 0  -0.28 0 0  -0.24 0 0  -0.2 0 0  -0.16 0 0  -0.12 0 0  -0.07999999999999996 0 0  -0.04000000000000004 0 0  0 0 0  0.04000000000000004 0 0  0.08000000000000007 0 0  0.1200000000000001 0 0  0.1599999999999999 0 0  0.2 0 0  0.24 0 0  0.28 0 0  0.3200000000000001 0 0  0.3600000000000001 0 0  0.3999999999999999 0 0  0.4399999999999999 0 0  0.48 0 0  0.52 0 0  0.5600000000000001 0 0  0.6000000000000001 0 0  0.6399999999999999 0 0  0.6799999999999999 0 0  0.72 0 0  0.76 0 0  0.8 0 0  0.8400000000000001 0 0  0.8799999999999999 0 0  0.9199999999999999 0 0  0.96 0 0  1 0 0  -1 0.016 0  -0.96 0.016 0  -0.92 0.016 0  -0.88 0.016 0  -0.84 0.016 0  -0.8 0.016 0  -0.76 0.016 0  -0.72 0.016 0  -0.6799999999999999 0.016 0  -0.64 0.016 0  -0.6 0.016 0  -0.5600000000000001 0.016 0  -0.52 0.016 0  -0.48 0.016 0  -0.4399999999999999 0.016 0  -0.4 0.016 0  -0.36 0.016 0  -0.32 0.016 0  -0.28 0.016 0  -0.24 0.016 0  -0.2 0.016 0  -0.16 0.016 0  -0.12 0.016 0  -0.07999999999999996 0.016 0  -0.04000000000000004 0.016 0  0 0.016 0  0.04000000000000004 0.016 0  0.08000000000000007 0.016 0  0.1200000000000001 0.016 0  0.1599999999999999 0.016 0  0.2 0.016 0  0.24 0.016 0  0.28 0.016 0  0.3200000000000001 0.016 0  0.3600000000000001 0.016 0  0.3999999999999999 0.016 0  0.4399999999999999 0.016 0  0.48 0.016 0  0.52 0.016 0  0.5600000000000001 0.016 0  0.6000000000000001 0.016 0  0.6399999999999999 0.016 0  0.6799999999999999 0.016 0  0.72 0.016 0  0.76 0.016 0  0.8 0.016 0  0.8400000000000001 0.016 0  0.8799999999999999 0.016 0  0.9199999999999999 0.016 0  0.96 0.016 0  1 0.016 0  -1 0.032 0  -0.96 0.032 0  -0.92 0.032 0  -0.88 0.032 0  -0.84 0.032 0  -0.8 0.032 0  -0.76 0.032 0  -0.72 0.032 0  -0.6799999999999999 0.032 0  -0.64 0.032 0  -0.6 0.032 0  -0.5600000000000001 0.032 0  -0.52 0.032 0  -0.48 0.032 0  -0.4399999999999999 0.032 0  -0.4 0.032 0  -0.36 0.032 0  -0.32 0.032 0  -0.28 0.032 0  -0.24 0.032 0  -0.2 0.032 0  -0.16 0.032 0  -0.12 0.032 0  -0.07999999999999996 0.032 0  -0.04000000000000004 0.032 0  0 0.032 0  0.04000000000000004 0.032 0  0.08000000000000007 0.032 0  0.1200000000000001 0.032 0  0.1599999999999999 0.032 0  0.2 0.032 0  0.24 0.032 0  0.28 0.032 0  0.3200000000000001 0.032 0  0.3600000000000001 0.032 0  0.3999999999999999 0.032 0  0.4399999999999999 0.032 0  0.48 0.032 0  0.52 0.032 0  0.5600000000000001 0.032 0  0.6000000000000001 0.032 0  0.6399999999999999 0.032 0  0.6799999999999999 0.032 0  0.72 0.032 0  0.76 0.032 0  0.8 0.032 0  0.8400000000000001 0.032 0  0.8799999999999999 0.032 0  0.9199999999999999 0.032 0  0.96 0.032 0  1 0.032 0  -1 0.04800000000000001 0  -0.96 0.04800000000000001 0  -0.92 0.04800000000000001 0  -0.88 0.04800000000000001 0  -0.84 0.04800000000000001 0  -0.8 0.04800000000000001 0  -0.76 0.04800000000000001 0  -0.72 0.04800000000000001 0  -0.6799999999999999 0.04800000000000001 0  -0.64 0.04800000000000001 0  -0.6 0.04800000000000001 0  -0.5600000000000001 0.04800000000000001 0  -0.52 0.04800000000000001 0  -0.48 0.04800000000000001 0  -0.4399999999999999 0.04800000000000001 0  -0.4 0.04800000000000001 0  -0.36 0.04800000000000001 0  -0.32 0.04800000000000001 0  -0.28 0.04800000000000001 0  -0.24 0.04800000000000001 0  -0.2 0.04800000000000001 0  -0.16 0.04800000000000001 0  -0.12 0.04800000000000001 0  -0.07999999999999996 0.04800000000000001 0  -0.04000000000000004 0.04800000000000001 0  0 0.04800000000000001 0  0.04000000000000004 0.04800000000000001 0  0.08000000000000007 0.04800000000000001 0  0.1200000000000001 0.04800000000000001 0  0.1599999999999999 0.04800000000000001 0  0.2 0.04800000000000001 0  0.24 0.04800000000000001 0  0.28 0.04800000000000001 0  0.3200000000000001 0.04800000000000001 0  0.3600000000000001 0.04800000000000001 0  0.3999999999999999 0.04800000000000001 0  0.4399999999999999 0.04800000000000001 0  0.48 0.04800000000000001 0  0.52 0.04800000000000001 0  0.5600000000000001 0.04800000000000001 0  0.6000000000000001 0.04800000000000001 0  0.6399999999999999 0.04800000000000001 0  0.6799999999999999 0.04800000000000001 0  0.72 0.04800000000000001 0  0.76 0.04800000000000001 0  0.8 0.04800000000000001 0  0.8400000000000001 0.04800000000000001 0  0.8799999999999999 0.04800000000000001 0  0.9199999999999999 0.04800000000000001 0  0.96 0.04800000000000001 0  1 0.04800000000000001 0  -1 0.064 0  -0.96 0.064 0  -0.92 0.064 0  -0.88 0.064 0  -0.84 0.064 0  -0.8 0.064 0  -0.76 0.064 0  -0.72 0.064 0  -0.6799999999999999 0.064 0  -0.64 0.064 0  -0.6 0.064 0  -0.5600000000000001 0.064 0  -0.52 0.064 0  -0.48 0.064 0  -0.4399999999999999 0.064 0  -0.4 0.064 0  -0.36 0.064 0  -0.32 0.064 0  -0.28 0.064 0  -0.24 0.064 0  -0.2 0.064 0  -0.16 0.064 0  -0.12 0.064 0  -0.07999999999999996 0.064 0  -0.04000000000000004 0.064 0  0 0.064 0  0.04000000000000004 0.064 0  0.08000000000000007 0.064 0  0.1200000000000001 0.064 0  0.1599999999999999 0.064 0  0.2 0.064 0  0.24 0.064 0  0.28 0.064 0  0.3200000000000001 0.064 0  0.3600000000000001 0.064 0  0.3999999999999999 0.064 0  0.4399999999999999 0.064 0  0.48 0.064 0  0.52 0.064 0  0.5600000000000001 0.064 0  0.6000000000000001 0.064 0  0.6399999999999999 0.064 0  0.6799999999999999 0.064 0  0.72 0.064 0  0.76 0.064 0  0.8 0.064 0  0.8400000000000001 0.064 0  0.8799999999999999 0.064 0  0.9199999999999999 0.064 0  0.96 0.064 0  1 0.064 0  -1 0.08 0  -0.96 0.08 0  -0.92 0.08 0  -0.88 0.08 0  -0.84 0.08 0  -0.8 0.08 0  -0.76 0.08 0  -0.72 0.08 0  -0.6799999999999999 0.08 0  -0.64 0.08 0  -0.6 0.08 0  -0.5600000000000001 0.08 0  -0.52 0.08 0  -0.48 0.08 0  -0.4399999999999999 0.08 0  -0.4 0.08 0  -0.36 0.08 0  -0.32 0.08 0  -0.28 0.08 0  -0.24 0.08 0  -0.2 0.08 0  -0.16 0.08 0  -0.12 0.08 0  -0.07999999999999996 0.08 0  -0.04000000000000004 0.08 0  0 0.08 0  0.04000000000000004 0.08 0  0.08000000000000007 0.08 0  0.1200000000000001 0.08 0  0.1599999999999999 0.08 0  0.2 0.08 0  0.24 0.08 0  0.28 0.08 0  0.3200000000000001 0.08 0  0.3600000000000001 0.08 0  0.3999999999999999 0.08 0  0.4399999999999999 0.08 0  0.48 0.08 0  0.52 0.08 0  0.5600000000000001 0.08 0  0.6000000000000001 0.08 0  0.6399999999999999 0.08 0  0.6799999999999999 0.08 0  0.72 0.08 0  0.76 0.08 0  0.8 0.08 0  0.8400000000000001 0.08 0  0.8799999999999999 0.08 0  0.9199999999999999 0.08 0  0.96 0.08 0  1 0.08 0  -1 0.09600000000000002 0  -0.96 0.09600000000000002 0  -0.92 0.09600000000000002 0  -0.88 0.09600000000000002 0  -0.84 0.09600000000000002 0  -0.8 0.09600000000000002 0  -0.76 0.09600000000000002 0  -0.72 0.09600000000000002 0  -0.6799999999999999 0.09600000000000002 0  -0.64 0.09600000000000002 0  -0.6 0.09600000000000002 0  -0.5600000000000001 0.09600000000000002 0  -0.52 0.09600000000000002 0  -0.48 0.09600000000000002 0  -0.4399999999999999 0.09600000000000002 0  -0.4 0.09600000000000002 0  -0.36 0.09600000000000002 0  -0.32 0.09600000000000002 0  -0.28 0.09600000000000002 0  -0.24 0.09600000000000002 0  -0.2 0.09600000000000002 0  -0.16 0.09600000000000002 0  -0.12 0.09600000000000002 0  -0.07999999999999996 0.09600000000000002 0  -0.04000000000000004 0.09600000000000002 0  0 0.09600000000000002 0  0.04000000000000004 0.09600000000000002 0  0.08000000000000007 0.09600000000000002 0  0.1200000000000001 0.09600000000000002 0  0.1599999999999999 0.09600000000000002 0  0.2 0.09600000000000002 0  0.24 0.09600000000000002 0  0.28 0.09600000000000002 0  0.3200000000000001 0.09600000000000002 0  0.3600000000000001 0.09600000000000002 0  0.3999999999999999 0.09600000000000002 0  0.4399999999999999 0.09600000000000002 0  0.48 0.09600000000000002 0  0.52 0.09600000000000002 0  0.5600000000000001 0.09600000000000002 0  0.6000000000000001 0.09600000000000002 0  0.6399999999999999 0.09600000000000002 0  0.6799999999999999 0.09600000000000002 0  0.72 0.09600000000000002 0  0.76 0.09600000000000002 0  0.8 0.09600000000000002 0  0.8400000000000001 0.09600000000000002 0  0.8799999999999999 0.09600000000000002 0  0.9199999999999999 0.09600000000000002 0  0.96 0.09600000000000002 0  1 0.09600000000000002 0  -1 0.112 0  -0.96 0.112 0  -0.92 0.112 0  -0.88 0.112 0  -0.84 0.112 0  -0.8 0.112 0  -0.76 0.112 0  -0.72 0.112 0  -0.6799999999999999 0.112 0  -0.64 0.112 0  -0.6 0.112 0  -0.5600000000000001 0.112 0  -0.52 0.112 0  -0.48 0.112 0  -0.4399999999999999 0.112 0  -0.4 0.112 0  -0.36 0.112 0  -0.32 0.112 0  -0.28 0.112 0  -0.24 0.112 0  -0.2 0.112 0  -0.16 0.112 0  -0.12 0.112 0  -0.07999999999999996 0.112 0  -0.04000000000000004 0.112 0  0 0.112 0  0.04000000000000004 0.112 0  0.08000000000000007 0.112 0  0.1200000000000001 0.112 0  0.1599999999999999 0.112 0  0.2 0.112 0  0.24 0.112 0  0.28 0.112 0  0.3200000000000001 0.112 0  0.3600000000000001 0.112 0  0.3999999999999999 0.112 0  0.4399999999999999 0.112 0  0.48 0.112 0  0.52 0.112 0  0.5600000000000001 0.112 0  0.6000000000000001 0.112 0  0.6399999999999999 0.112 0  0.6799999999999999 0.112 0  0.72 0.112 0  0.76 0.112 0  0.8 0.112 0  0.8400000000000001 0.112 0  0.8799999999999999 0.112 0  0.9199999999999999 0.112 0  0.96 0.112 0  1 0.112 0  -1 0.128 0  -0.96 0.128 0  -0.92 0.128 0  -0.88 0.128 0  -0.84 0.128 0  -0.8 0.128 0  -0.76 0.128 0  -0.72 0.128 0  -0.6799999999999999 0.128 0  -0.64 0.128 0  -0.6 0.128 0  -0.5600000000000001 0.128 0  -0.52 0.128 0  -0.48 0.128 0  -0.4399999999999999 0.128 0  -0.4 0.128 0  -0.36 0.128 0  -0.32 0.128 0  -0.28 0.128 0  -0.24 0.128 0  -0.2 0.128 0  -0.16 0.128 0  -0.12 0.128 0  -0.07999999999999996 0.128 0  -0.04000000000000004 0.128 0  0 0.128 0  0.04000000000000004 0.128 0  0.08000000000000007 0.128 0  0.1200000000000001 0.128 0  0.1599
[...]
<PointData  Scalars="f_100"> 
<DataArray  type="Float64"  Name="f_100"  format="ascii">6.0000000000000002e-05  5.4247843783177407e-05  5.2916064645964491e-05  5.2375024843187470e-05  5.1998938530488209e-05  5.1566710033295269e-05  5.0980564287589369e-05  5.0185699095820948e-05  4.9149690495270092e-05  4.7860060390438160e-05  4.6326009612650462e-05  4.4579142630133285e-05  4.2671290761450058e-05  4.0669169559960446e-05  3.8646601638032012e-05  3.6675416059221442e-05  3.4814524654856082e-05  3.3081062793960784e-05  3.1314698817072824e-05  2.5187667970029167e-05  1.8274869393500650e-05  1.5141411295599029e-05  1.3033296587104518e-05  1.1461005249762951e-05  1.0204079122767871e-05  9.1361934669639918e-06  8.1811532187143614e-06  7.2992099022165517e-06  6.4919993593008887e-06  5.8455667028590601e-06  5.6975522075012617e-06  7.4466532811626757e-06  1.0010163817536832e-05  9.6436849798326820e-06  8.3391753475972219e-06  6.8468814471648510e-06  5.4400117969317299e-06  4.2099644827309200e-06  3.1809888294851209e-06  2.3489750341104897e-06  1.6961203850879249e-06  1.1980362109226980e-06  8.2810006824280199e-07  5.6035895872661001e-07  3.7136401983996793e-07  2.4113527196687741e-07  1.5344371192841200e-07  9.5569628544301759e-08  5.7520689122256983e-08  3.0042838245418010e-08  0.0000000000000000e+00  6.0000000000000002e-05  5.4522004671489301e-05  5.3183381734902513e-05  5.2639024273041390e-05  5.2261332816576707e-05  5.1827648325016716e-05  5.1239546464379866e-05  5.0441866216877178e-05  4.9401937905372050e-05  4.8107120722753685e-05  4.6566549213656881e-05  4.4811876178376131e-05  4.2895102324953966e-05  4.0883221865118089e-05  3.8850415622152806e-05  3.6868909065091101e-05  3.4998013574073993e-05  3.3255412927672394e-05  3.1465777952186975e-05  2.5849156542921105e-05  1.9187703020790157e-05  1.5897257474538398e-05  1.3674267840305988e-05  1.2019225610116118e-05  1.0698882503390303e-05  9.5793489121748169e-06  8.5796403112507313e-06  7.6568759974327876e-06  6.8105555309602752e-06  6.1247916151643549e-06  5.9339883542217000e-06  7.5306384092498530e-06  1.0059714643731665e-05  9.6992794685167165e-06  8.3890367938054466e-06  6.8887903527534610e-06  5.4739675447075178e-06  4.2367211675448182e-06  3.2015570050410610e-06  2.3644175549645098e-06  1.7074509297044925e-06  1.2061639463157737e-06  8.3380221631629339e-07  5.6427303324127728e-07  3.7399383380676649e-07  2.4286558308674514e-07  1.5455918169700326e-07  9.6274879808370040e-08  5.7959685981144653e-08  3.0318698164088399e-08  0.0000000000000000e+00  6.0000000000000002e-05  5.4792118017650997e-05  5.3449876778213518e-05  5.2903665166040857e-05  5.2524827653083073e-05  5.2089828549567662e-05  5.1499809553690973e-05  5.0699318165442862e-05  4.9655459674049372e-05  4.8355436595595398e-05  4.6808318785416755e-05  4.5045807847419913e-05  4.3120074328832294e-05  4.1098391904233531e-05  3.9055300994559122e-05  3.7063426724145339e-05  3.5182496553505307e-05  3.3430870824864743e-05  3.1622104644350134e-05  2.6453526629376526e-05  2.0093399881588765e-05  1.6651525045365722e-05  1.4320679889762660e-05  1.2586294866449831e-05  1.1204315097291573e-05  1.0034051141460350e-05  8.9900320055657700e-06  8.0263670026969187e-06  7.1404272511708619e-06  6.4141934971336474e-06  6.1770635730882189e-06  7.6356575239421155e-06  1.0117694512569450e-05  9.7578904926788376e-06  8.4400342787769627e-06  6.9312136227621766e-06  5.5082174027401563e-06  4.2636777823068449e-06  3.2222726278648117e-06  2.3799712907752019e-06  1.7188649703613832e-06  1.2143534012566078e-06  8.3954910102794710e-07  5.6821886048079584e-07  3.7664570911035196e-07  2.4461090067975564e-07  1.5568465051040904e-07  9.6986662790948393e-08  5.8402784804517420e-08  3.0595595514110133e-08  0.0000000000000000e+00  6.0000000000000002e-05  5.5057387730627517e-05  5.3715509264164073e-05  5.3168941023665346e-05  5.2789425999443490e-05  5.2353256854217825e-05  5.1761360935252289e-05  5.0958062911990656e-05  4.9910264092358260e-05  4.8605016425632162e-05  4.7051326667465980e-05  4.5280945682095316e-05  4.3346214312161585e-05  4.1314686534927572e-05  3.9261263811687626e-05  3.7258974198463905e-05  3.5367977450630874e-05  3.3607428077960861e-05  3.1783345702778907e-05  2.7008645275536549e-05  2.0968848902722785e-05  1.7400062004735699e-05  1.4970745611759429e-05  1.3161305281236230e-05  1.1719962237368999e-05  1.0500195976060918e-05  9.4124289803613285e-06  8.4079215804123343e-06  7.4819535151939508e-06  6.7142246408919685e-06  6.4278956813214064e-06  7.7592726977394148e-06  1.0184237290785236e-05  9.8195660006605928e-06  8.4921860972199682e-06  6.9741570726652760e-06  5.5427629454860041e-06  4.2908343705443436e-06  3.2431351413526514e-06  2.3956354531091776e-06  1.7303616631213730e-06  1.2226037724928216e-06  8.4534001194571531e-07  5.7219584592542115e-07  3.7931917047290473e-07  2.4637085946161522e-07  1.5681984663036993e-07  9.7704778250851073e-08  5.8849831708989642e-08  3.0873350737291385e-08  0.0000000000000000e+00  6.0000000000000002e-05  5.5317255500938168e-05  5.3980254881004081e-05  5.3434849421390698e-05  5.3055132033336405e-05  5.2617939671942309e-05  5.2024207938487869e-05  5.1218108231194111e-05  5.0166359179372890e-05  4.8855868319029166e-05  4.7295580882904766e-05  4.5517297437704130e-05  4.3573529582394896e-05  4.1532112466050580e-05  3.9468310079259269e-05  3.7455556702183788e-05  3.5554460277488356e-05  3.3785079622868882e-05  3.1949166488461257e-05  2.7521472023046507e-05  2.1802892730334527e-05  1.8139904592492137e-05  1.5622943865355486e-05  1.3743477758451926e-05  1.2245488794825313e-05  1.0977734241909584e-05  9.8469721942927164e-06  8.8018077395736060e-06  7.8354896285062223e-06  7.0253254710055041e-06  6.6874213963487013e-06  7.8997337358083464e-06  1.0259444142790393e-05  9.8843418817558602e-06  8.5455057074936426e-06  7.0176251416818352e-06  5.5776055101883332e-06  4.3181911010587572e-06  3.2641442231513887e-06  2.4114095081580035e-06  1.7419404043485907e-06  1.2309144680798912e-06  8.5117441551365745e-07  5.7620353721915294e-07  3.8201385284274745e-07  2.4814517686795872e-07  1.5796455867739785e-07  9.8429070465291096e-08  5.9300706262242997e-08  3.1151843962345015e-08  0.0000000000000000e+00  6.0000000000000002e-05  5.5571357489705719e-05  5.4244103408160884e-05  5.3701391791443214e-05  5.3321951099682444e-05  5.2883883726847988e-05  5.2288357873058063e-05  5.1479461747377258e-05  5.0423752737750991e-05  4.9108000132863723e-05  4.7541089200671654e-05  4.5754870637572585e-05  4.3802027262733519e-05  4.1750676290371853e-05  3.9676445767325210e-05  3.7653179496617765e-05  3.5741949161657842e-05  3.3963822769814729e-05  3.2119239521606530e-05  2.7998080713096253e-05  2.2591323150096134e-05  1.8868693405782645e-05  1.6275934883805674e-05  1.4332124524721532e-05  1.2780617988719556e-05  1.1466659954739808e-05  1.0293837336090787e-05  9.2083221000459106e-06  8.2014119726949767e-06  7.3479407357645282e-06  6.9564498621545579e-06  8.0557929188145018e-06  1.0343383871669800e-05  9.9522422283427346e-06  8.6000019749292574e-06  7.0616209519580050e-06  5.6127461841178548e-06  4.3457482300067343e-06  3.2852997394269678e-06  2.4272931306157628e-06  1.7536007879108529e-06  1.2392850698353675e-06  8.5705192357040289e-07  5.8024159879601190e-07  3.8472948166228331e-07  2.4993363820307946e-07  1.5911862476444342e-07  9.9159419384496663e-08  5.9755315541623729e-08  3.1431003588274662e-08  0.0000000000000000e+00  6.0000000000000002e-05  5.5819488387354987e-05  5.4507057232351513e-05  5.3968573246534302e-05  5.3589889668390409e-05  5.3151096038603658e-05  5.2553818054043549e-05  5.1742130971990367e-05  5.0682452399529798e-05  4.9361419525712798e-05  4.7787859186801703e-05  4.5993672620381950e-05  4.4031714331036819e-05  4.1970384511374055e-05  3.9885676822531758e-05  3.7851847886191718e-05  3.5930448316079345e-05  3.4143656428703022e-05  3.2293250469890153e-05  2.8443727322555548e-05  2.3333883145203969e-05  1.9584500710177487e-05  1.6928534696084831e-05  1.4926635664739208e-05  1.3325123905343527e-05  1.1967006717290319e-05  1.0753233957637242e-05  9.6277912426496977e-06  8.5801221296855346e-06  7.6825294783844413e-06  7.2357015689219426e-06  8.2265717717819803e-06  1.0436094315921687e-05  1.0023279536242327e-05  8.6556793745606781e-06  7.1061463573253860e-06  5.6481857940391485e-06  4.3735060696804423e-06  3.3066017072468137e-06  2.4432861657675153e-06  1.7653425700240933e-06  1.2477153025161827e-06  8.6297226751966935e-07  5.8430979107322378e-07  3.8746585669596914e-07  2.5173608447433907e-07  1.6028192360004792e-07  9.9895734210933436e-08  6.0213589276426268e-08  3.1710796916834742e-08  0.0000000000000000e+00  6.0000000000000002e-05  5.6061571637832031e-05  5.4769130305710534e-05  5.4236402432492157e-05  5.3858955298338811e-05  5.3419583925744818e-05  5.2820595822617412e-05  5.2006123334486019e-05  5.0942465663867358e-05  4.9616133999325342e-05  4.8035898246623312e-05  4.6233710579098711e-05  4.4262597651788001e-05  4.2191243565221550e-05  4.0096009178124207e-05  3.8051567215080839e-05  3.6119962015745464e-05  3.4324580497880679e-05  3.2470902088831862e-05  2.8862937208255480e-05  2.4032479468302995e-05  2.0285806110236122e-05  1.7579712695511218e-05  1.5526477713406640e-05  1.3878831301781745e-05  1.2478848549876460e-05  1.1225407156806459e-05  1.0060574198648283e-05  8.9720506300638772e-06  8.0295716125996901e-06  7.5258372449139791e-06  8.4114651480556433e-06  1.0537584252027425e-05  1.0097454859009804e-05  8.7125381630444731e-06  7.1512019846054962e-06  5.6839248978725701e-06  4.4014649629120536e-06  3.3280502636688202e-06  2.4593885983363789e-06  1.7771656403768629e-06  1.2562050085156877e-06  8.6893527713801737e-07  5.8840795338912746e-07  3.9022283877582070e-07  2.5355240242641409e-07  1.6145436720387900e-07  1.0063794814424773e-07  6.0675475873971766e-08  3.1991222482033245e-08  0.0000000000000000e+00  6.0000000000000002e-05  5.6297634819309472e-05  5.5030347408473015e-05  5.4504891400726099e-05  5.4129156605597213e-05  5.3689355007767521e-05  5.3088698562909298e-05  5.2271446207729980e-05  5.1203799928142034e-05  4.9872150932954902e-05  4.8285213659502223e-05  4.6474991593002169e-05  4.4494684002361612e-05  4.2413259838777931e-05  4.0307448762112810e-05  3.8252342864443047e-05  3.6310494579757624e-05  3.4506595389072860e-05  3.2651916585580936e-05  2.9259596786120459e-05  2.4690125153598262e-05  2.0971507123999315e-05  1.8228597881459740e-05  1.6131198313491512e-05  1.4441619290644486e-05  1.3002303149224309e-05  1.1710640686694959e-05  1.0507065597157729e-05  9.3776605158541565e-06  8.3895727139428583e-06  7.8274797394393292e-06  8.6100721063359597e-06  1.0647835444844163e-05  1.0174757930380700e-05  8.7705745277944872e-06  7.1967872698339782e-06  5.7199637784994047e-06  4.4296252622089159e-06  3.3496456403767734e-06  2.4756005268945054e-06  1.7890699984155855e-06  1.2647541270922767e-06  8.7494086318703396e-07  5.9253599001146835e-07  3.9300033893776902e-07  2.5538251637732197e-07  1.6263589494222165e-07  1.0138601408003257e-07  6.1140939166495928e-08  3.2272303784617816e-08  0.0000000000000000e+00  6.0000000000000002e-05  5.6527789335935111e-05  5.5290743614025032e-05  5.4774055493704793e-05  5.4400503234303079e-05  5.3960417205959455e-05  5.3358133715648180e-05  5.2538106928883497e-05  5.1466462513575079e-05  5.0129477611649375e-05  4.8535812607455821e-05  4.6717522654040693e-05  4.4727980094615682e-05  4.2636439684389744e-05  4.0520001503945607e-05  3.8454180250163572e-05  3.6502050357583464e-05  3.4689701664879945e-05  3.2836036787966853e-05  2.9637041645951151e-05  2.5310321715844337e-05  2.1640922485220559e-05  1.8874487763245700e-05  1.6740433787340496e-05  1.5013427086129901e-05  1.3537536505961879e-05  1.2209260897670353e-05  1.0967699225795032e-05  9.7974508468592078e-06  8.7630679343219800e-06  8.1412309352808204e-06  8.8221460522591535e-06  1.0766804619173388e-05  1.0255167267260946e-05  8.8297807199109185e-06  7.2429004912958761e-06  5.7563024396438165e-06  4.4579873128765098e-06  3.3713881429054799e-06  2.4919221428549632e-06  1.8010557338707040e-06  1.2733626773181125e-06  8.8098900314646485e-07  5.9669385866297088e-07  3.9579830951710095e-07  2.5722638153007442e-07  1.6382646864394367e-07  1.0213990108896742e-07  6.1609955745947972e-08  3.2554084189255948e-08  0.0000000000000000e+00  6.0000000000000002e-05  5.6752213712354015e-05  5.5550363881352691e-05  5.5043913238304113e-05  5.4673005828940490e-05  5.4232778742941766e-05  5.3628908789072196e-05  5.2806112816530866e-05  5.1730460686336411e-05  5.0388121249566498e-05  4.8787702198726695e-05  4.6961310688529069e-05  4.4962492592648340e-05  4.2860789432023637e-05  4.0733673339968334e-05  3.8657084821037387e-05  3.6694633718624145e-05  3.4873899768538989e-05  3.3023026423695878e-05  2.9998137218286904e-05  2.5896705663191147e-05  2.2293777779721665e-05  1.9516857212941201e-05  1.7353917919226104e-05  1.5594260826628958e-05  1.4084768305067115e-05  1.2721641196406707e-05  1.1442951879829524e-05  1.0231960234825397e-05  9.1506255430161801e-06  8.4676850981662423e-06  9.0475587542517785e-06  1.0894425214872759e-05  1.0338650263783388e-05  8.8901451762939122e-06  7.2895388008730186e-06  5.7929406037564598e-06  4.4865514395111887e-06  3.3932781336664362e-06  2.5083537132357137e-06  1.8131230107676574e-06  1.2820307440815084e-06  8.8707972950732244e-07  6.0088156111047635e-07  3.9861673684900402e-07  2.5908397849270519e-07  1.6502606860079925e-07  1.0289959153434373e-07  6.2082512778326800e-08  3.2836622783420889e-08  0.0000000000000000e+00  6.0000000000000002e-05  5.6971139897747569e-05  5.5809262720779024e-05  5.5314486243133166e-05  5.4946676007033966e-05  5.4506448140914334e-05  5.3901031367513219e-05  5.3075471184691669e-05  5.1995801674924957e-05  5.0648089009194546e-05  4.9040889487211633e-05  4.7206362575018981e-05  4.5198228127408325e-05  4.3086315399238174e-05  4.0948470217899735e-05  3.8861062057326928e-05  3.6888249044410111e-05  3.5059189828648559e-05  3.3212669749956774e-05  3.0345350486041030e-05  2.6452853348934843e-05  2.2930175555713391e-05  2.0155365922110391e-05  1.7971491014096970e-05  1.6184200932532192e-05  1.4644277794738341e-05  1.3248206851549284e-05  1.1933347435444620e-05  1.0681770458684349e-05  9.5528503673421968e-06  8.8074396552435865e-06  9.2862743708092471e-06  1.1030608847409603e-05  1.0425163285236124e-05  8.9516526353498030e-06  7.3366982548880999e-06  5.8298777118195527e-06  4.5153179353481214e-06  3.4153160181229193e-06  2.5248955665299898e-06  1.8252720543011725e-06  1.2907584665955316e-06  8.9321312016447498e-07  6.0509913544542146e-07  4.0145563528396461e-07  2.6095530878764885e-07  1.6623469029141406e-07  1.0366507871172771e-07  6.2558606209163786e-08  3.3119991031261381e-08  0.0000000000000000e+00  6.0000000000000002e-05  5.7184842082557737e-05  5.6067503894735633e-05  5.5585799096890509e-05  5.5221526331485887e-05  5.4781434218612424e-05  5.4174509117996486e-05  5.3346189354246117e-05  5.2262492684476572e-05  5.0909388017203583e-05  4.9295381488483708e-05  4.7452685159027339e-05  4.5435193308725805e-05  4.3313023899384421e-05  4.1164398100507855e-05  3.9066117469641865e-05  3.7082900722905124e-05  3.5245571524233544e-05  3.3404770720442600e-05  3.0680812558868773e-05  2.6982180142243458e-05  2.3550555714213378e-05  2.0789863804451409e-05  1.8593108722504334e-05  1.6783409695655262e-05  1.5216409947718019e-05  1.3789440051827241e-05  1.2439461112805622e-05  1.1147510193432844e-05  9.9703872775681615e-06  9.1611041143946273e-06  9.5383307179258749e-06  1.1175246434873290e-05  1.0514651769186541e-05  9.0142842498856062e-06  7.3843738453732263e-06  5.8671129249906635e-06  4.5442870540354455e-06  3.4375022335769786e-06  2.5415480811350674e-06  1.8375031400618526e-06  1.2995460289630795e-06  8.9938929053063366e-07  6.0934664975022477e-07  4.0431504227998142e-07  2.6284039117094002e-07  1.6745234169733041e-07  1.0443636491556667e-07  6.3038239288040031e-08  3.3404270084154972e-08  0.0000000000000000e+00  6.0000000000000002e-05  5.7393627611890204e-05  5.6325160127255938e-05  5.5857879265518342e-05  5.5497570281962028e-05  5.5057746086993901e-05  5.4449349795140512e-05  5.3618274662210653e-05  5.2530540908538074e-05  5.1172025377524291e-05  4.9551185193014915e-05  4.7700285265185247e-05  4.5673394735228812e-05  4.3540921248358374e-05  4.1381462968638546e-05  3.9272256598095154e-05  3.7278593144521426e-05  3.5433043997894918e-05  3.3599151833516308e-05  3.1006372625175576e-05  2.7487895280696901e-05  2.4155651943771105e-05  2.1420394123707399e-05  1.9218850363688419e-05  1.7392138926386090e-05  1.5801581813168146e-05  1.4345885162368830e-05  1.2961923909460597e-05  1.1629858871726689e-05  1.0403924790096786e-05  9.5293076435475114e-06  9.8038257861318553e-06  1.1328208977554763e-05  1.0607050339910211e-05  9.0780177001123178e-06  7.4325595324815738e-06  5.9046451280013802e-06  4.5734590034763882e-06  3.4598372401243384e-06  2.5583116758880986e-06  1.8498165851947365e-06  1.3083936524288148e-06  9.0560838706122258e-07  6.1362419689987175e-07  4.0719501437631732e-07  2.6473925861403301e-07  1.6867904110324989e-07  1.0521345985476677e-07  6.3521421353280854e-08  3.3689548633208447e-08  0.0000000000000000e+00  6.0000000000000002e-05  5.7597829647325643e-05  5.6582312804764582e-05  5.6130756986472705e-05  5.5774822224872435e-05  5.5335393143685343e-05  5.4725561244596217e-05  5.3891734469226028e-05  5.2799953538752095e-05  5.1436008182147261e-05  4.9808307577099859e-05  4.7949169707271339e-05  4.5912839002527443e-05  4.3770013770170201e-05  4.1599670823719238e-05  3.9479485011696433e-05  3.7475330699542006e-05  3.5621605806864563e-05  3.3795652770476281e-05  3.1323644124037221e-05  2.7972989134266965e-05  2.4746448661053012e-05  2.2047194440493563e-05  1.9848926622893901e-05  1.8010737557610268e-05  1.6400288997402359e-05  1.4918154146014646e-05  1.3501427191804603e-05  1.2129550688612292e-05  1.0854198825396117e-05  9.9127056943925376e-06  1.0082908075613579e-05  1.1489347991747720e-05  1.0702282941281971e-05  9.1428273091138681e-06  7.4812482785902444e-06  5.9424729342268411e-06  4.6028339414394403e-06  3.4823215134100606e-06  2.5751868023370510e-06  1.8622127411439347e-06  1.3173015890140470e-06  9.1187058193499183e-07  6.1793189029282850e-07  4.1009562388851967e-07  2.6665195582749255e-07  1.6991481529303937e-07  1.0599637935334499e-07  6.4008166828758231e-08  3.3975921208489660e-08  0.0000000000000000e+00  6.0000000000000002e-05  5.7797801285609664e-05  5.6839051657260442e-05  5.6404465158855923e-05  5.6053297381612682e-05  5.5614385066222912e-05  5.5003151405226852e-05  5.4166576165557812e-05  5.3070737772819953e-05  5.1701343520049095e-05  5.0066755611892884e-05  4.8199345296510843e-05  4.6153532709980582e-05  4.4000307801547493e-05  4.1819027689838040e-05  3.9687808307948808e-05  3.7673117776715968e-05  3.5811254903589698e-05  3.3994128905212995e-05  3.1634044094657730e-05  2.8440238918620519e-05  2.5324141432293598e-05  2.2670695692927258e-05  2.0483686589087976e-05  1.8639659147622049e-05  1.7013112234258899e-05  1.5506932127657287e-05  1.4058727435773398e-05  1.2647378754320555e-05  1.1321996638086147e-05  1.0311985959487101e-05  1.0375769718733595e-05  1.1658495608568670e-05  1.0800262992573731e-05  9.2086841626649390e-06  7.5304320845025072e-06  5.9805946923423146e-06  4.6324119726847894e-06  3.5049555388810076e-06  2.5921739384399799e-06  1.8746919876984941e-06  1.3262701162845151e-06  9.1817606868058850e-07  6.2226986034211343e-07  4.1301695619308666e-07  2.6857853722744452e-07  1.7115969806895009e-07  1.0678514428376232e-07  6.4498494393505003e-08  3.4263486845930550e-08  0.0000000000000000e+00  6.0000000000000002e-05  5.7993910890200648e-05  5.7095474413693525e-05  5.6679039228496669e-05  5.6333011794827116e-05  5.5894731804129587e-05  5.5282128310199126e-05  5.4442807175858879e-05  5.3342900821046729e-05  5.1968038484581090e-05  5.0326536270899323e-05  4.8450818848455186e-05  4.6395482466303913e-05  4.423180969575119