<?xml version="1.0"?>
<VTKFile type="UnstructuredGrid"  version="0.1"  >
<UnstructuredGrid>
<Piece  NumberOfPoints="2601" NumberOfCells="5000">
<Points>
<DataArray  type="Float64"  NumberOfComponents="3"  format="ascii">-1 0 0  -0.96 0 0  -0.92 0 0  -0.88 0 0  -0.84 0 0  -0.8 0 0  -0.76 0 0  -0.72 0 0  -0.6799999999999999 0 0  -0.64 0 0  -0.6 0 0  -0.5600000000000001 0 0  -0.52 0 0  -0.48 0 0  -0.4399999999999999 0 0  -0.4 0 0  -0.36 0 0  -0.32 0 0  -0.28 0 0  -0.24 0 0  -0.2 0 0  -0.16 0 0  -0.12 0 0  -0.07999999999999996 0 0  -0.04000000000000004 0 0  0 0 0  0.04000000000000004 0 0  0.08000000000000007 0 0  0.1200000000000001 0 0  0.1599999999999999 0 0  0.2 0 0  0.24 0 0  0.28 0 0  0.3200000000000001 0 0  0.3600000000000001 0 0  0.3999999999999999 0 0  0.4399999999999999 0 0  0.48 0 0  0.52 0 0  0.5600000000000001 0 0  0.6000000000000001 0 0  0.6399999999999999 0 0  0.6799999999999999 0 0  0.72 0 0  0.76 0 0  0.8 0 0  0.8400000000000001 0 0  0.8799999999999999 0 0  0.9199999999999999 0 0  0.96 0 0  1 0 0  -1 0.016 0  -0.96 0.016 0  -0.92 0.016 0  -0.88 0.016 0  -0.84 0.016 0  -0.8 0.016 0  -0.76 0.016 0  -0.72 0.016 0  -0.6799999999999999 0.016 0  -0.64 0.016 0  -0.6 0.016 0  -0.5600000000000001 0.016 0  -0.52 0.016 0  -0.48 0.016 0  -0.4399999999999999 0.016 0  -0.4 0.016 0  -0.36 0.016 0  -0.32 0.016 0  -0.28 0.016 0  -0.24 0.016 0  -0.2 0.016 0  -0.16 0.016 0  -0.12 0.016 0  -0.07999999999999996 0.016 0  -0.04000000000000004 0.016 0  0 0.016 0  0.04000000000000004 0.016 0  0.08000000000000007 0.016 0  0.1200000000000001 0.016 0  0.1599999999999999 0.016 0  0.2 0.016 0  0.24 0.016 0  0.28 0.016 0  0.3200000000000001 0.016 0  0.3600000000000001 0.016 0  0.3999999999999999 0.016 0  0.4399999999999999 0.016 0  0.48 0.016 0  0.52 0.016 0  0.5600000000000001 0.016 0  0.6000000000000001 0.016 0  0.6399999999999999 0.016 0  0.6799999999999999 0.016 0  0.72 0.016 0  0.76 0.016 0  0.8 0.016 0  0.8400000000000001 0.016 0  0.8799999999999999 0.016 0  0.9199999999999999 0.016 0  0.96 0.016 0  1 0.016 0  -1 0.032 0  -0.96 0.032 0  -0.92 0.032 0  -0.88 0.032 0  -0.84 0.032 0  -0.8 0.032 0  -0.76 0.032 0  -0.72 0.032 0  -0.6799999999999999 0.032 0  -0.64 0.032 0  -0.6 0.032 0  -0.5600000000000001 0.032 0  -0.52 0.032 0  -0.48 0.032 0  -0.4399999999999999 0.032 0  -0.4 0.032 0  -0.36 0.032 0  -0.32 0.032 0  -0.28 0.032 0  -0.24 0.032 0  -0.2 0.032 0  -0.16 0.032 0  -0.12 0.032 0  -0.07999999999999996 0.032 0  -0.04000000000000004 0.032 0  0 0.032 0  0.04000000000000004 0.032 0  0.08000000000000007 0.032 0  0.1200000000000001 0.032 0  0.1599999999999999 0.032 0  0.2 0.032 0  0.24 0.032 0  0.28 0.032 0  0.3200000000000001 0.032 0  0.3600000000000001 0.032 0  0.3999999999999999 0.032 0  0.4399999999999999 0.032 0  0.48 0.032 0  0.52 0.032 0  0.5600000000000001 0.032 0  0.6000000000000001 0.032 0  0.6399999999999999 0.032 0  0.6799999999999999 0.032 0  0.72 0.032 0  0.76 0.032 0  0.8 0.032 0  0.8400000000000001 0.032 0  0.8799999999999999 0.032 0  0.9199999999999999 0.032 0  0.96 0.032 0  1 0.032 0  -1 0.04800000000000001 0  -0.96 0.04800000000000001 0  -0.92 0.04800000000000001 0  -0.88 0.04800000000000001 0  -0.84 0.04800000000000001 0  -0.8 0.04800000000000001 0  -0.76 0.04800000000000001 0  -0.72 0.04800000000000001 0  -0.6799999999999999 0.04800000000000001 0  -0.64 0.04800000000000001 0  -0.6 0.04800000000000001 0  -0.5600000000000001 0.04800000000000001 0  -0.52 0.04800000000000001 0  -0.48 0.04800000000000001 0  -0.4399999999999999 0.04800000000000001 0  -0.4 0.04800000000000001 0  -0.36 0.04800000000000001 0  -0.32 0.04800000000000001 0  -0.28 0.04800000000000001 0  -0.24 0.04800000000000001 0  -0.2 0.04800000000000001 0  -0.16 0.04800000000000001 0  -0.12 0.04800000000000001 0  -0.07999999999999996 0.04800000000000001 0  -0.04000000000000004 0.04800000000000001 0  0 0.04800000000000001 0  0.04000000000000004 0.04800000000000001 0  0.08000000000000007 0.04800000000000001 0  0.1200000000000001 0.04800000000000001 0  0.1599999999999999 0.04800000000000001 0  0.2 0.04800000000000001 0  0.24 0.04800000000000001 0  0.28 0.04800000000000001 0  0.3200000000000001 0.04800000000000001 0  0.3600000000000001 0.04800000000000001 0  0.3999999999999999 0.04800000000000001 0  0.4399999999999999 0.04800000000000001 0  0.48 0.04800000000000001 0  0.52 0.04800000000000001 0  0.5600000000000001 0.04800000000000001 0  0.6000000000000001 0.04800000000000001 0  0.6399999999999999 0.04800000000000001 0  0.6799999999999999 0.04800000000000001 0  0.72 0.04800000000000001 0  0.76 0.04800000000000001 0  0.8 0.04800000000000001 0  0.8400000000000001 0.04800000000000001 0  0.8799999999999999 0.04800000000000001 0  0.9199999999999999 0.04800000000000001 0  0.96 0.04800000000000001 0  1 0.04800000000000001 0  -1 0.064 0  -0.96 0.064 0  -0.92 0.064 0  -0.88 0.064 0  -0.84 0.064 0  -0.8 0.064 0  -0.76 0.064 0  -0.72 0.064 0  -0.6799999999999999 0.064 0  -0.64 0.064 0  -0.6 0.064 0  -0.5600000000000001 0.064 0  -0.52 0.064 0  -0.48 0.064 0  -0.4399999999999999 0.064 0  -0.4 0.064 0  -0.36 0.064 0  -0.32 0.064 0  -0.28 0.064 0  -0.24 0.064 0  -0.2 0.064 0  -0.16 0.064 0  -0.12 0.064 0  -0.07999999999999996 0.064 0  -0.04000000000000004 0.064 0  0 0.064 0  0.04000000000000004 0.064 0  0.08000000000000007 0.064 0  0.1200000000000001 0.064 0  0.1599999999999999 0.064 0  0.2 0.064 0  0.24 0.064 0  0.28 0.064 0  0.3200000000000001 0.064 0  0.3600000000000001 0.064 0  0.3999999999999999 0.064 0  0.4399999999999999 0.064 0  0.48 0.064 0  0.52 0.064 0  0.5600000000000001 0.064 0  0.6000000000000001 0.064 0  0.6399999999999999 0.064 0  0.6799999999999999 0.064 0  0.72 0.064 0  0.76 0.064 0  0.8 0.064 0  0.8400000000000001 0.064 0  0.8799999999999999 0.064 0  0.9199999999999999 0.064 0  0.96 0.064 0  1 0.064 0  -1 0.08 0  -0.96 0.08 0  -0.92 0.08 0  -0.88 0.08 0  -0.84 0.08 0  -0.8 0.08 0  -0.76 0.08 0  -0.72 0.08 0  -0.6799999999999999 0.08 0  -0.64 0.08 0  -0.6 0.08 0  -0.5600000000000001 0.08 0  -0.52 0.08 0  -0.48 0.08 0  -0.4399999999999999 0.08 0  -0.4 0.08 0  -0.36 0.08 0  -0.32 0.08 0  -0.28 0.08 0  -0.24 0.08 0  -0.2 0.08 0  -0.16 0.08 0  -0.12 0.08 0  -0.07999999999999996 0.08 0  -0.04000000000000004 0.08 0  0 0.08 0  0.04000000000000004 0.08 0  0.08000000000000007 0.08 0  0.1200000000000001 0.08 0  0.1599999999999999 0.08 0  0.2 0.08 0  0.24 0.08 0  0.28 0.08 0  0.3200000000000001 0.08 0  0.3600000000000001 0.08 0  0.3999999999999999 0.08 0  0.4399999999999999 0.08 0  0.48 0.08 0  0.52 0.08 0  0.5600000000000001 0.08 0  0.6000000000000001 0.08 0  0.6399999999999999 0.08 0  0.6799999999999999 0.08 0  0.72 0.08 0  0.76 0.08 0  0.8 0.08 0  0.8400000000000001 0.08 0  0.8799999999999999 0.08 0  0.9199999999999999 0.08 0  0.96 0.08 0  1 0.08 0  -1 0.09600000000000002 0  -0.96 0.09600000000000002 0  -0.92 0.09600000000000002 0  -0.88 0.09600000000000002 0  -0.84 0.09600000000000002 0  -0.8 0.09600000000000002 0  -0.76 0.09600000000000002 0  -0.72 0.09600000000000002 0  -0.6799999999999999 0.09600000000000002 0  -0.64 0.09600000000000002 0  -0.6 0.09600000000000002 0  -0.5600000000000001 0.09600000000000002 0  -0.52 0.09600000000000002 0  -0.48 0.09600000000000002 0  -0.4399999999999999 0.09600000000000002 0  -0.4 0.09600000000000002 0  -0.36 0.09600000000000002 0  -0.32 0.09600000000000002 0  -0.28 0.09600000000000002 0  -0.24 0.09600000000000002 0  -0.2 0.09600000000000002 0  -0.16 0.09600000000000002 0  -0.12 0.09600000000000002 0  -0.07999999999999996 0.09600000000000002 0  -0.04000000000000004 0.09600000000000002 0  0 0.09600000000000002 0  0.04000000000000004 0.09600000000000002 0  0.08000000000000007 0.09600000000000002 0  0.1200000000000001 0.09600000000000002 0  0.1599999999999999 0.09600000000000002 0  0.2 0.09600000000000002 0  0.24 0.09600000000000002 0  0.28 0.09600000000000002 0  0.3200000000000001 0.09600000000000002 0  0.3600000000000001 0.09600000000000002 0  0.3999999999999999 0.09600000000000002 0  0.4399999999999999 0.09600000000000002 0  0.48 0.09600000000000002 0  0.52 0.09600000000000002 0  0.5600000000000001 0.09600000000000002 0  0.6000000000000001 0.09600000000000002 0  0.6399999999999999 0.09600000000000002 0  0.6799999999999999 0.09600000000000002 0  0.72 0.09600000000000002 0  0.76 0.09600000000000002 0  0.8 0.09600000000000002 0  0.8400000000000001 0.09600000000000002 0  0.8799999999999999 0.09600000000000002 0  0.9199999999999999 0.09600000000000002 0  0.96 0.09600000000000002 0  1 0.09600000000000002 0  -1 0.112 0  -0.96 0.112 0  -0.92 0.112 0  -0.88 0.112 0  -0.84 0.112 0  -0.8 0.112 0  -0.76 0.112 0  -0.72 0.112 0  -0.6799999999999999 0.112 0  -0.64 0.112 0  -0.6 0.112 0  -0.5600000000000001 0.112 0  -0.52 0.112 0  -0.48 0.112 0  -0.4399999999999999 0.112 0  -0.4 0.112 0  -0.36 0.112 0  -0.32 0.112 0  -0.28 0.112 0  -0.24 0.112 0  -0.2 0.112 0  -0.16 0.112 0  -0.12 0.112 0  -0.07999999999999996 0.112 0  -0.04000000000000004 0.112 0  0 0.112 0  0.04000000000000004 0.112 0  0.08000000000000007 0.112 0  0.1200000000000001 0.112 0  0.1599999999999999 0.112 0  0.2 0.112 0  0.24 0.112 0  0.28 0.112 0  0.3200000000000001 0.112 0  0.3600000000000001 0.112 0  0.3999999999999999 0.112 0  0.4399999999999999 0.112 0  0.48 0.112 0  0.52 0.112 0  0.5600000000000001 0.112 0  0.6000000000000001 0.112 0  0.6399999999999999 0.112 0  0.6799999999999999 0.112 0  0.72 0.112 0  0.76 0.112 0  0.8 0.112 0  0.8400000000000001 0.112 0  0.8799999999999999 0.112 0  0.9199999999999999 0.112 0  0.96 0.112 0  1 0.112 0  -1 0.128 0  -0.96 0.128 0  -0.92 0.128 0  -0.88 0.128 0  -0.84 0.128 0  -0.8 0.128 0  -0.76 0.128 0  -0.72 0.128 0  -0.6799999999999999 0.128 0  -0.64 0.128 0  -0.6 0.128 0  -0.5600000000000001 0.128 0  -0.52 0.128 0  -0.48 0.128 0  -0.4399999999999999 0.128 0  -0.4 0.128 0  -0.36 0.128 0  -0.32 0.128 0  -0.28 0.128 0  -0.24 0.128 0  -0.2 0.128 0  -0.16 0.128 0  -0.12 0.128 0  -0.07999999999999996 0.128 0  -0.04000000000000004 0.128 0  0 0.128 0  0.04000000000000004 0.128 0  0.08000000000000007 0.128 0  0.1200000000000001 0.128 0  0.1599
[...]
<PointData  Scalars="f_100"> 
<DataArray  type="Float64"  Name="f_100"  format="ascii">6.0000000000000002e-05  5.3448038493975545e-05  5.0714562204652565e-05  4.8085001547435856e-05  4.5051373415929687e-05  4.1686049622648093e-05  3.8277188050494311e-05  3.5135798949904019e-05  3.2485298548625889e-05  3.0421661678668602e-05  2.8927818356399996e-05  2.7915301243438526e-05  2.7267836954287724e-05  2.6871953362869200e-05  2.6630278029021556e-05  2.6459269017995304e-05  2.6274058390443169e-05  2.5952598843394460e-05  2.5217491164756022e-05  2.0419115014965853e-05  1.4426106005961540e-05  1.1165345193242946e-05  8.5479886259192458e-06  6.3390191818705743e-06  4.5089618052598204e-06  3.0612187945084885e-06  1.9799574817026815e-06  1.2201450259033169e-06  7.1768822345771022e-07  4.0564054580310083e-07  2.3102294993771928e-07  1.9263476318769540e-07  2.0248831627187671e-07  1.3332117525853413e-07  7.3895457863370073e-08  3.7460036944032815e-08  1.7974470363752840e-08  8.2886758465869923e-09  3.7012741496979112e-09  1.6074148996872271e-09  6.8081549367747512e-10  2.8179915145054515e-10  1.1417289035678420e-10  4.5341452016710399e-11  1.7670983340947648e-11  6.7659582194295349e-12  2.5475740806130616e-12  9.4404187518197807e-13  3.4370229462739877e-13  1.1691339714165533e-13  0.0000000000000000e+00  6.0000000000000002e-05  5.3723579119807021e-05  5.0979769287227556e-05  4.8339792166251614e-05  4.5293470901196598e-05  4.1912366974470615e-05  3.8485764428567356e-05  3.5326545657987761e-05  3.2659884586874643e-05  3.0582891339546754e-05  2.9078881827111252e-05  2.8059176744617426e-05  2.7406956787455248e-05  2.7008110859547168e-05  2.6764687593496961e-05  2.6592684345931810e-05  2.6406877382525368e-05  2.6085034241122865e-05  2.5336968459014964e-05  2.0958238907049412e-05  1.5174591293753643e-05  1.1766825061974044e-05  9.0213141769058171e-06  6.7018417705832962e-06  4.7764033873518670e-06  3.2493971668168657e-06  2.1059173365099611e-06  1.3002900404806041e-06  7.6619926413092466e-07  4.3358531810325540e-07  2.4616743106431779e-07  1.9588730523723567e-07  2.0392342876285781e-07  1.3440786183073674e-07  7.4513619114080484e-08  3.7778622266300517e-08  1.8129486588409134e-08  8.3610599481408153e-09  3.7339668978989231e-09  1.6217611759364544e-09  6.8694980986896184e-10  2.8436042033488433e-10  1.1521892271271484e-10  4.5759920991961897e-11  1.7835178911686720e-11  6.8292191162546432e-12  2.5715313071310336e-12  9.5296866254724761e-13  3.4698044836163279e-13  1.1812069588473589e-13  0.0000000000000000e+00  6.0000000000000002e-05  5.3995015099927975e-05  5.1244114137224492e-05  4.8595177898663782e-05  4.5536595290757415e-05  4.2139808568204529e-05  3.8695446384260299e-05  3.5518336137628638e-05  3.2835438241100269e-05  3.0745012896705342e-05  2.9230770483928736e-05  2.8203823905582787e-05  2.7546808661309305e-05  2.7144973140653705e-05  2.6899784550097232e-05  2.6726777994131277e-05  2.6540382887229084e-05  2.6218279792031268e-05  2.5460613503169924e-05  2.1450947929409859e-05  1.5915962880588860e-05  1.2365765998247997e-05  9.4975005196250400e-06  7.0695404381712101e-06  5.0490673818151614e-06  3.4422856130094007e-06  2.2356874171948625e-06  1.3832655129030322e-06  8.1666434001551582e-07  4.6279076689293430e-07  2.6203114244610042e-07  2.0031566050068717e-07  2.0572340529339700e-07  1.3560436246484114e-07  7.5163512541253061e-08  3.8107160210340221e-08  1.8288034637990095e-08  8.4348394208360601e-09  3.7672476962283942e-09  1.6363616829345675e-09  6.9319414777641882e-10  2.8696875247375611e-10  1.1628474266800486e-10  4.6186550513675305e-11  1.8002674444738673e-11  6.8937890373044672e-12  2.5959982940986868e-12  9.6209051556498921e-13  3.5033196770086014e-13  1.1935197231894771e-13  0.0000000000000000e+00  6.0000000000000002e-05  5.4261546761278926e-05  5.1507560915024565e-05  4.8851158307556873e-05  4.5780755118452242e-05  4.2368383785519245e-05  3.8906241038112609e-05  3.5711174510594598e-05  3.3011961172342170e-05  3.0908026604649652e-05  2.9383484196050187e-05  2.8349242911522656e-05  2.7687393406951920e-05  2.7282541729269517e-05  2.7035571005203520e-05  2.6861552482269029e-05  2.6674577445429061e-05  2.6352329237069232e-05  2.5588162102284313e-05  2.1903511399592612e-05  1.6631458998640518e-05  1.2958836879214474e-05  9.9751030410318636e-06  7.4413334120717969e-06  5.3265042594620718e-06  3.6396133383943901e-06  2.3690971822177062e-06  1.4689606297180921e-06  8.6901120264606553e-07  4.9321264169087099e-07  2.7861269852984417e-07  2.0577553653521112e-07  2.0789444488755568e-07  1.3691233976062980e-07  7.5845364025992144e-08  3.8445550714471147e-08  1.8450007707823243e-08  8.5099474003121941e-09  3.8010808101112156e-09  1.6511987666761353e-09  6.9954021478429763e-10  2.8962039766731676e-10  1.1736870676472534e-10  4.6620639919684192e-11  1.8173178550555796e-11  6.9595495303180979e-12  2.6209278947280987e-12  9.7138902636967882e-13  3.5374974631000226e-13  1.2060423652116289e-13  0.0000000000000000e+00  6.0000000000000002e-05  5.4522613709103750e-05  5.1770089277414414e-05  4.9107736016840698e-05  4.6025959168870733e-05  4.2598101685203438e-05  3.9118155400501726e-05  3.5905065202028939e-05  3.3189455687204486e-05  3.1071933532240024e-05  2.9537023647179730e-05  2.8495434650862727e-05  2.7828712401716908e-05  2.7420818541009663e-05  2.7172049332144821e-05  2.6997010502480019e-05  2.6809463694986884e-05  2.6487178842709724e-05  2.5719347488479101e-05  2.2321497817114275e-05  1.7312027741225949e-05  1.3543614611434984e-05  1.0452847288450146e-05  7.8165179840830783e-06  5.6083264749619798e-06  3.8411704565928309e-06  2.5060359470882116e-06  1.5573188194321114e-06  9.2321213310956962e-07  5.2483924570283416e-07  2.9592460307309962e-07  2.1216194247287903e-07  2.1044192851096207e-07  1.3833308525055874e-07  7.6559319509485484e-08  3.8793704506411751e-08  1.8615318340054966e-08  8.5863300192505534e-09  3.8354376071723861e-09  1.6662583125981066e-09  7.0598138732952997e-10  2.9231236201603650e-10  1.1846950338342702e-10  4.7061630151138662e-11  1.8346458776496352e-11  7.0264061198370871e-12  2.6462825128824589e-12  9.8084951892913522e-13  3.5722812045767258e-13  1.2187516227712959e-13  0.0000000000000000e+00  6.0000000000000002e-05  5.4777851246606340e-05  5.2031692402386237e-05  4.9364916679119869e-05  4.6272216601227758e-05  4.2828971120974655e-05  3.9331196418423010e-05  3.6100012902717980e-05  3.3367924634272828e-05  3.1236735425695958e-05  2.9691390195956618e-05  2.8642400593801218e-05  2.7970767474765256e-05  2.7559805816696862e-05  2.7309222126197033e-05  2.7133154890270094e-05  2.6945044342896563e-05  2.6622826650711283e-05  2.5853907585931080e-05  2.2709783060846348e-05  1.7954264630182081e-05  1.4118138991444299e-05  1.0929582648134900e-05  8.1944515152228201e-06  5.8941905964889621e-06  4.0467874809467561e-06  2.6464308186248392e-06  1.6483166590523237e-06  9.7926602217712759e-07  5.5767801515467685e-07  3.1398638740824525e-07  2.1939870876361120e-07  2.1337032485603680e-07  1.3986752279819563e-07  7.7305441966644020e-08  3.9151536919173569e-08  1.8783893865893096e-08  8.6639437664194278e-09  3.8702951799729109e-09  1.6815290704671174e-09  7.1251239423079676e-10  2.9504226453242086e-10  1.1958608975515891e-10  4.7509076821372792e-11  1.8522330372652355e-11  7.0942837263843886e-12  2.6720322742765643e-12  9.9046033291881244e-13  3.6076259187716555e-13  1.2316295816397991e-13  0.0000000000000000e+00  6.0000000000000002e-05  5.5027054209331075e-05  5.2292375617790344e-05  4.9622708951961007e-05  4.6519537050984792e-05  4.3061000837879503e-05  3.9545371013184383e-05  3.6296022537213963e-05  3.3547371318263737e-05  3.1402434595583928e-05  2.9846585761134332e-05  2.8790142692590644e-05  2.8113560829716706e-05  2.7699506067265947e-05  2.7447092167805814e-05  2.7269988600816009e-05  2.7081322144125537e-05  2.6759271878760285e-05  2.5991590111445453e-05  2.3072598566799301e-05  1.8557978630427098e-05  1.4680789617769887e-05  1.1404274037056733e-05  8.5745465136299285e-06  6.1837903758242311e-06  4.2563257498901295e-06  2.7902356517131499e-06  1.7419530379009453e-06  1.0371890841647515e-06  5.9174856427861811e-07  3.3282151115544718e-07  2.2743115354971088e-07  2.1668317393538756e-07  1.4151621019300361e-07  7.8083708843810833e-08  3.9518962814033489e-08  1.8955672685649926e-08  8.7427533365351416e-09  3.9056352263797839e-09  1.6970021061555804e-09  7.1912905976865922e-10  2.9780822090005715e-10  1.2071764093560295e-10  4.7962628413831223e-11  1.8700647202901668e-11  7.1631229625463540e-12  2.6981535485805058e-12  1.0002122453047529e-12  3.6434960402203363e-13  1.2446626321260513e-13  0.0000000000000000e+00  6.0000000000000002e-05  5.5270147002957256e-05  5.2552155453946842e-05  4.9881124476293143e-05  4.6767930712184704e-05  4.3294199550849690e-05  3.9760686110663535e-05  3.6493099236889246e-05  3.3727799428864148e-05  3.1569033823587284e-05  3.0002612727119380e-05  2.8938663299671831e-05  2.8257094981242121e-05  2.7839922028676549e-05  2.7585662392530486e-05  2.7407514689664962e-05  2.7218299885602380e-05  2.6896514448088433e-05  2.6132155976713489e-05  2.3413597137514150e-05  1.9124740653962476e-05  1.5230276140384345e-05  1.1876006984070150e-05  8.9562727703884182e-06  6.4768558511035479e-06  4.4696740011611783e-06  2.9374261840125934e-06  1.8382440171021534e-06  1.0970103152766811e-06  6.2707924757487713e-07  3.5245617710813929e-07  2.3622090425272015e-07  2.2038311427230154e-07  1.4327933921698277e-07  7.8894009961358041e-08  3.9895892436855344e-08  1.9130601238667239e-08  8.8227298811200531e-09  3.9414431396879018e-09  1.7126703565251925e-09  7.2582809525670471e-10  3.0060874924306214e-10  1.2186350847007158e-10  4.8422008632273843e-11  1.8881294391532483e-11  7.2328771380819370e-12  2.7246277550906381e-12  1.0100980031514583e-12  3.6798636142367086e-13  1.2578406251650314e-13  0.0000000000000000e+00  6.0000000000000002e-05  5.5507158829425072e-05  5.2811058985358156e-05  5.0140177852520178e-05  4.7017408403014051e-05  4.3528576008355665e-05  3.9977148665466195e-05  3.6691248317138002e-05  3.3909212981737271e-05  3.1736536285590530e-05  3.0159473866256225e-05  2.9087965100461263e-05  2.8401372703095211e-05  2.7981056625014091e-05  2.7724935866480087e-05  2.7545736297026578e-05  2.7355980374164352e-05  2.7034554617058231e-05  2.6275381377965956e-05  2.3735923705576223e-05  1.9657024580011998e-05  1.5765652544076451e-05  1.2343996807567798e-05  9.3391630215491051e-06  6.7731557957980851e-06  4.6867484349530456e-06  3.0879986614050851e-06  1.9372208734431495e-06  1.1587695744903819e-06  6.6370564616754464e-07  3.7291910192853880e-07  2.4574221726595169e-07  2.2447193099517801e-07  1.4515673451143005e-07  7.9736145879761311e-08  4.0282228063502963e-08  1.9308631541904709e-08  8.9038495871050400e-09  3.9777072695349780e-09  1.7285282680963797e-09  7.3260692996515252e-10  3.0344269374040741e-10  1.2302318690900875e-10  4.8887002112332937e-11  1.9064182373945395e-11  7.3035098382930874e-12  2.7514403975419226e-12  1.0201119462598468e-12  3.7167068384093441e-13  1.2711561902571465e-13  0.0000000000000000e+00  6.0000000000000002e-05  5.5738203250857558e-05  5.3069123361582610e-05  5.0399886611364380e-05  4.7267981616721528e-05  4.3764139043585412e-05  4.0194765680073695e-05  3.6890475258060338e-05  3.4091616269601955e-05  3.1904945488215727e-05  3.0317172274884199e-05  2.9238051058164573e-05  2.8546396985516076e-05  2.8122912938289079e-05  2.7864915766236832e-05  2.7684656634998916e-05  2.7494366427559890e-05  2.7173392702432380e-05  2.6421058886477712e-05  2.4042284185101457e-05  2.0157705234455873e-05  1.6286322924144693e-05  1.2807598340229147e-05  9.7228202654114442e-06  7.0725020260535503e-06  4.9074947823863122e-06  3.2419704627546905e-06  2.0389299457837932e-06  1.2225171304363241e-06  7.0167011816013837e-07  3.9424175286312003e-07  2.5597935269066190e-07  2.2895060989072511e-07  1.4714785157835778e-07  8.0609826726277862e-08  4.0677861314520354e-08  1.9489719197842979e-08  8.9860925234313913e-09  4.0144183219095980e-09  1.7445715038051145e-09  7.3946357397981742e-10  3.0630916270719064e-10  1.2419628668273478e-10  4.9357442853971391e-11  1.9249242083176268e-11  7.3749929658555203e-12  2.7785802840693846e-12  1.0302497023510519e-12  3.7540088849236289e-13  1.2846041847212414e-13  0.0000000000000000e+00  6.0000000000000002e-05  5.5963461378721184e-05  5.3326395454238411e-05  5.0660271177467735e-05  4.7519662559696056e-05  4.4000897615153632e-05  4.0413544219863789e-05  3.7090785688065347e-05  3.4275013821649384e-05  3.2074265216448478e-05  3.0475711320718147e-05  2.9388924368458148e-05  2.8692171000311525e-05  2.8265494183714812e-05  2.8005605362445210e-05  2.7824278977190985e-05  2.7633460867819599e-05  2.7313028872559648e-05  2.6568997790911876e-05  2.4335008991713752e-05  2.0629770991580724e-05  1.6792031354087859e-05  1.3266314714099678e-05  1.0106925704258158e-05  7.3747547319267848e-06  5.1318915479185986e-06  3.3993818953136073e-06  2.1434335240209545e-06  1.2883140446530964e-06  7.4102194920348810e-07  4.1645880552321767e-07  2.6692470079773744e-07  2.3381938769124973e-07  1.4925177423413967e-07  8.1514671478488141e-08  4.1082671039492179e-08  1.9673821790257229e-08  9.0694417069170019e-09  4.0515688724565751e-09  1.7607967050912087e-09  7.4639650697611160e-10  3.0920747840345090e-10  1.2538251212698935e-10  4.9833204856207361e-11  1.9436421055145955e-11  7.4473051573035372e-12  2.8060388967579147e-12  1.0405079408318999e-12  3.7917569495352189e-13  1.2981812494671044e-13  0.0000000000000000e+00  6.0000000000000002e-05  5.6183168091359578e-05  5.3582931567697592e-05  5.0921354824480598e-05  4.7772464178235104e-05  4.4238860838998526e-05  4.0633491424724118e-05  3.7292185369916169e-05  3.4459410369857463e-05  3.2244499490403247e-05  3.0635094599537649e-05  2.9540588422266101e-05  2.8838698072222102e-05  2.8408803689464659e-05  2.8147008006394748e-05  2.7964606650302989e-05  2.7773266516477317e-05  2.7453462999001219e-05  2.6719023889877211e-05  2.4616109815364507e-05  2.1076164980298075e-05  1.7282838221312129e-05  1.3719804498515110e-05  1.0491246730997809e-05  7.6798283576708721e-06  5.3599539566708007e-06  3.5602986994405758e-06  2.2508113627484384e-06  1.3562330489687349e-06  7.8181785362081431e-07  4.3960870435821522e-07  2.7857744978841420e-07  2.3907779238202888e-07  1.5146721180684951e-07  8.2450207700504913e-08  4.1496521688236975e-08  1.9860897601069116e-08  9.1538823476244764e-09  4.0891529720852263e-09  1.7772012989520987e-09  7.5340458802099797e-10  3.1213713634874009e-10  1.2658164367990929e-10  5.0314194534080345e-11  1.9625680276931773e-11  7.5204305023365009e-12  2.8338098820327291e-12  1.0508841738592639e-12  3.8299414834481224e-13  1.3118854511540729e-13  0.0000000000000000e+00  6.0000000000000002e-05  5.6397600780031188e-05  5.3838797176653683e-05  5.1183163620855405e-05  4.8026400175305583e-05  4.4478038012837930e-05  4.0854614517843206e-05  3.7494680188813589e-05  3.4644810821008156e-05  3.2415652529617830e-05  3.0795325899525532e-05  2.9693046775176196e-05  2.8985981655435621e-05  2.8552844880090864e-05  2.8289127119046764e-05  2.8105643027305755e-05  2.7913786191250999e-05  2.7594694555182289e-05  2.6870978889582591e-05  2.4887329359374877e-05  2.1499702927849325e-05  1.7759088140489777e-05  1.4167886864612391e-05  1.0875644636854627e-05  7.9876977564461192e-06  5.5917383395394088e-06  3.7248150049179145e-06  2.3611625898828075e-06  1.4263597313540538e-06  8.2412269209409818e-07  4.6373427191746005e-07  2.9094264717630075e-07  2.4472466966186740e-07  1.5379249634173960e-07  8.3415871727422014e-08  4.1919262099811719e-08  2.0050904593467468e-08  9.2394012412780527e-09  4.1271658277897947e-09  1.7937833415366029e-09  7.6048698243508005e-10  3.1509777234017261e-10  1.2779352345662143e-10  5.0800344577643654e-11  1.9816991635832984e-11  7.5943575078356991e-12  2.8618886386472010e-12  1.0613765955856555e-12  3.8685555727662514e-13  1.3257159943845834e-13  0.0000000000000000e+00  6.0000000000000002e-05  5.6607070204890216e-05  5.4094066665484603e-05  5.1445726365904259e-05  4.8281485018410452e-05  4.4718438634322130e-05  4.1076920812156082e-05  3.7698276142177007e-05  3.4831220233417189e-05  3.2587728723547168e-05  3.0956409171889099e-05  2.9846303122297755e-05  2.9134025314312091e-05  2.8697621262934811e-05  2.8431966182055372e-05  2.8247391521926234e-05  2.8055022703890517e-05  2.7736722552485810e-05  2.7024719526036863e-05  2.5150184362833063e-05  2.1903036275964620e-05  1.8221374370903663e-05  1.4610544712645607e-05  1.1260081868239527e-05  8.2984044583246143e-06  5.8273468019831528e-06  3.8930565940981422e-06  2.4746078839215040e-06  1.4987939298601946e-06  8.6801033438227020e-07  4.8888334511624768e-07  3.0403055009730210e-07  2.5075819324322812e-07  1.5622558005585033e-07  8.4411009293407217e-08  4.2350724651705612e-08  2.0243799616280742e-08  9.3259862822283745e-09  4.1656035447640717e-09  1.8105413914284332e-09  7.6764310249249557e-10  3.1808913571164546e-10  1.2901804355785991e-10  5.1291608977347636e-11  2.0010335854075023e-11  7.6690782595699438e-12  2.8902719844709663e-12  1.0719839522164909e-12  3.9075944369774159e-13  1.3396729906502326e-13  0.0000000000000000e+00  6.0000000000000002e-05  5.6811913110490033e-05  5.4348823053045479e-05  5.1709074515919648e-05  4.8537733939517051e-05  4.4960072413828748e-05  4.1300417714833590e-05  3.7902979330834998e-05  3.5018643797553390e-05  3.2760732607157947e-05  3.1118348506638373e-05  3.0000361277577442e-05  2.9282832707552294e-05  2.8843136416979653e-05  2.8575528730414726e-05  2.8389855584199567e-05  2.8196978858972288e-05  2.7879545505818084e-05  2.7180116502701831e-05  2.5406002516447669e-05  2.2288641677325242e-05  1.8670503513918838e-05  1.5047925905609289e-05  1.1644628755865753e-05  8.6120629566577753e-06  6.0669320861777880e-06  4.0651843898701676e-06  2.5912918503173692e-06  1.5736512806517259e-06  9.1356462929237729e-07  5.1510943219387225e-07  3.1785618965135707e-07  2.5717585769077192e-07  1.5876403326490076e-07  8.5434876598608862e-08  4.2790724720975546e-08  2.0439537792578193e-08  9.4136260753080787e-09  4.2044629184698283e-09  1.8274744070473702e-09  7.7487255934065750e-10  3.2111106764726295e-10  1.3025513659062695e-10  5.1787958992418884e-11  2.0205700815882566e-11  7.7445877435277376e-12  2.9189578868715139e-12  1.0827054369202271e-12  3.9470550234054618e-13  1.3537572732370688e-13  0.0000000000000000e+00  6.0000000000000002e-05  5.7012486307473134e-05  5.4603157692897652e-05  5.1973242100330992e-05  4.8795162927874523e-05  4.5202949282687618e-05  4.1525112730133794e-05  3.8108795951382219e-05  3.5207086819864723e-05  3.2934668840715607e-05  3.1281148112593066e-05  3.0155225156763421e-05  2.9432407575179768e-05  2.8989393983695071e-05  2.8719818346430985e-05  2.8533038696891282e-05  2.8339657453474939e-05  2.8023161422083083e-05  2.7337053311744429e-05  2.5655953995176981e-05  2.2658825535559020e-05  1.9107463001831714e-05  1.5480342907788713e-05  1.2029469701797741e-05  8.9288669582011974e-06  6.3107025727951319e-06  4.2413981214471851e-06  2.7113855586951870e-06  1.6510648913895295e-06  9.6088046238266031e-07  5.4247239110893088e-07  3.3243909524039719e-07  2.6397445314352392e-07  1.6140504299396246e-07  8.6486641809637799e-08  4.3239060416764999e-08  2.0638072061996074e-08  9.5023096288600941e-09  4.2437412674114199e-09  1.8445816636327148e-09  7.8217512401156071e-10  3.2416348358496452e-10  1.3150476797730097e-10  5.2289379881077114e-11  2.0403080211335554e-11  7.8208832960494900e-12  2.9479452443803097e-12  1.0935406047707013e-12  3.9869356789816455e-13  1.3679702493147874e-13  0.0000000000000000e+00  6.0000000000000002e-05  5.7209161974906849e-05  5.4857169943552998e-05  5.2238265627998923e-05  4.9053788716442085e-05  4.5447079397495645e-05  4.1751013460877304e-05  3.8315732289497617e-05  3.5396554709243591e-05  3.3109542193012327e-05  3.1444812300852334e-05  3.0310898763351143e-05  2.9582753727818073e-05  2.913639765950473