<?xml version="1.0"?>
<VTKFile type="UnstructuredGrid"  version="0.1"  >
<UnstructuredGrid>
<Piece  NumberOfPoints="2601" NumberOfCells="5000">
<Points>
<DataArray  type="Float64"  NumberOfComponents="3"  format="ascii">-1 0 0  -0.96 0 0  -0.92 0 0  -0.88 0 0  -0.84 0 0  -0.8 0 0  -0.76 0 0  -0.72 0 0  -0.6799999999999999 0 0  -0.64 0 0  -0.6 0 0  -0.5600000000000001 0 0  -0.52 0 0  -0.48 0 0  -0.4399999999999999 0 0  -0.4 0 0  -0.36 0 0  -0.32 0 0  -0.28 0 0  -0.24 0 0  -0.2 0 0  -0.16 0 0  -0.12 0 0  -0.07999999999999996 0 0  -0.04000000000000004 0 0  0 0 0  0.04000000000000004 0 0  0.08000000000000007 0 0  0.1200000000000001 0 0  0.1599999999999999 0 0  0.2 0 0  0.24 0 0  0.28 0 0  0.3200000000000001 0 0  0.3600000000000001 0 0  0.3999999999999999 0 0  0.4399999999999999 0 0  0.48 0 0  0.52 0 0  0.5600000000000001 0 0  0.6000000000000001 0 0  0.6399999999999999 0 0  0.6799999999999999 0 0  0.72 0 0  0.76 0 0  0.8 0 0  0.8400000000000001 0 0  0.8799999999999999 0 0  0.9199999999999999 0 0  0.96 0 0  1 0 0  -1 0.016 0  -0.96 0.016 0  -0.92 0.016 0  -0.88 0.016 0  -0.84 0.016 0  -0.8 0.016 0  -0.76 0.016 0  -0.72 0.016 0  -0.6799999999999999 0.016 0  -0.64 0.016 0  -0.6 0.016 0  -0.5600000000000001 0.016 0  -0.52 0.016 0  -0.48 0.016 0  -0.4399999999999999 0.016 0  -0.4 0.016 0  -0.36 0.016 0  -0.32 0.016 0  -0.28 0.016 0  -0.24 0.016 0  -0.2 0.016 0  -0.16 0.016 0  -0.12 0.016 0  -0.07999999999999996 0.016 0  -0.04000000000000004 0.016 0  0 0.016 0  0.04000000000000004 0.016 0  0.08000000000000007 0.016 0  0.1200000000000001 0.016 0  0.1599999999999999 0.016 0  0.2 0.016 0  0.24 0.016 0  0.28 0.016 0  0.3200000000000001 0.016 0  0.3600000000000001 0.016 0  0.3999999999999999 0.016 0  0.4399999999999999 0.016 0  0.48 0.016 0  0.52 0.016 0  0.5600000000000001 0.016 0  0.6000000000000001 0.016 0  0.6399999999999999 0.016 0  0.6799999999999999 0.016 0  0.72 0.016 0  0.76 0.016 0  0.8 0.016 0  0.8400000000000001 0.016 0  0.8799999999999999 0.016 0  0.9199999999999999 0.016 0  0.96 0.016 0  1 0.016 0  -1 0.032 0  -0.96 0.032 0  -0.92 0.032 0  -0.88 0.032 0  -0.84 0.032 0  -0.8 0.032 0  -0.76 0.032 0  -0.72 0.032 0  -0.6799999999999999 0.032 0  -0.64 0.032 0  -0.6 0.032 0  -0.5600000000000001 0.032 0  -0.52 0.032 0  -0.48 0.032 0  -0.4399999999999999 0.032 0  -0.4 0.032 0  -0.36 0.032 0  -0.32 0.032 0  -0.28 0.032 0  -0.24 0.032 0  -0.2 0.032 0  -0.16 0.032 0  -0.12 0.032 0  -0.07999999999999996 0.032 0  -0.04000000000000004 0.032 0  0 0.032 0  0.04000000000000004 0.032 0  0.08000000000000007 0.032 0  0.1200000000000001 0.032 0  0.1599999999999999 0.032 0  0.2 0.032 0  0.24 0.032 0  0.28 0.032 0  0.3200000000000001 0.032 0  0.3600000000000001 0.032 0  0.3999999999999999 0.032 0  0.4399999999999999 0.032 0  0.48 0.032 0  0.52 0.032 0  0.5600000000000001 0.032 0  0.6000000000000001 0.032 0  0.6399999999999999 0.032 0  0.6799999999999999 0.032 0  0.72 0.032 0  0.76 0.032 0  0.8 0.032 0  0.8400000000000001 0.032 0  0.8799999999999999 0.032 0  0.9199999999999999 0.032 0  0.96 0.032 0  1 0.032 0  -1 0.04800000000000001 0  -0.96 0.04800000000000001 0  -0.92 0.04800000000000001 0  -0.88 0.04800000000000001 0  -0.84 0.04800000000000001 0  -0.8 0.04800000000000001 0  -0.76 0.04800000000000001 0  -0.72 0.04800000000000001 0  -0.6799999999999999 0.04800000000000001 0  -0.64 0.04800000000000001 0  -0.6 0.04800000000000001 0  -0.5600000000000001 0.04800000000000001 0  -0.52 0.04800000000000001 0  -0.48 0.04800000000000001 0  -0.4399999999999999 0.04800000000000001 0  -0.4 0.04800000000000001 0  -0.36 0.04800000000000001 0  -0.32 0.04800000000000001 0  -0.28 0.04800000000000001 0  -0.24 0.04800000000000001 0  -0.2 0.04800000000000001 0  -0.16 0.04800000000000001 0  -0.12 0.04800000000000001 0  -0.07999999999999996 0.04800000000000001 0  -0.04000000000000004 0.04800000000000001 0  0 0.04800000000000001 0  0.04000000000000004 0.04800000000000001 0  0.08000000000000007 0.04800000000000001 0  0.1200000000000001 0.04800000000000001 0  0.1599999999999999 0.04800000000000001 0  0.2 0.04800000000000001 0  0.24 0.04800000000000001 0  0.28 0.04800000000000001 0  0.3200000000000001 0.04800000000000001 0  0.3600000000000001 0.04800000000000001 0  0.3999999999999999 0.04800000000000001 0  0.4399999999999999 0.04800000000000001 0  0.48 0.04800000000000001 0  0.52 0.04800000000000001 0  0.5600000000000001 0.04800000000000001 0  0.6000000000000001 0.04800000000000001 0  0.6399999999999999 0.04800000000000001 0  0.6799999999999999 0.04800000000000001 0  0.72 0.04800000000000001 0  0.76 0.04800000000000001 0  0.8 0.04800000000000001 0  0.8400000000000001 0.04800000000000001 0  0.8799999999999999 0.04800000000000001 0  0.9199999999999999 0.04800000000000001 0  0.96 0.04800000000000001 0  1 0.04800000000000001 0  -1 0.064 0  -0.96 0.064 0  -0.92 0.064 0  -0.88 0.064 0  -0.84 0.064 0  -0.8 0.064 0  -0.76 0.064 0  -0.72 0.064 0  -0.6799999999999999 0.064 0  -0.64 0.064 0  -0.6 0.064 0  -0.5600000000000001 0.064 0  -0.52 0.064 0  -0.48 0.064 0  -0.4399999999999999 0.064 0  -0.4 0.064 0  -0.36 0.064 0  -0.32 0.064 0  -0.28 0.064 0  -0.24 0.064 0  -0.2 0.064 0  -0.16 0.064 0  -0.12 0.064 0  -0.07999999999999996 0.064 0  -0.04000000000000004 0.064 0  0 0.064 0  0.04000000000000004 0.064 0  0.08000000000000007 0.064 0  0.1200000000000001 0.064 0  0.1599999999999999 0.064 0  0.2 0.064 0  0.24 0.064 0  0.28 0.064 0  0.3200000000000001 0.064 0  0.3600000000000001 0.064 0  0.3999999999999999 0.064 0  0.4399999999999999 0.064 0  0.48 0.064 0  0.52 0.064 0  0.5600000000000001 0.064 0  0.6000000000000001 0.064 0  0.6399999999999999 0.064 0  0.6799999999999999 0.064 0  0.72 0.064 0  0.76 0.064 0  0.8 0.064 0  0.8400000000000001 0.064 0  0.8799999999999999 0.064 0  0.9199999999999999 0.064 0  0.96 0.064 0  1 0.064 0  -1 0.08 0  -0.96 0.08 0  -0.92 0.08 0  -0.88 0.08 0  -0.84 0.08 0  -0.8 0.08 0  -0.76 0.08 0  -0.72 0.08 0  -0.6799999999999999 0.08 0  -0.64 0.08 0  -0.6 0.08 0  -0.5600000000000001 0.08 0  -0.52 0.08 0  -0.48 0.08 0  -0.4399999999999999 0.08 0  -0.4 0.08 0  -0.36 0.08 0  -0.32 0.08 0  -0.28 0.08 0  -0.24 0.08 0  -0.2 0.08 0  -0.16 0.08 0  -0.12 0.08 0  -0.07999999999999996 0.08 0  -0.04000000000000004 0.08 0  0 0.08 0  0.04000000000000004 0.08 0  0.08000000000000007 0.08 0  0.1200000000000001 0.08 0  0.1599999999999999 0.08 0  0.2 0.08 0  0.24 0.08 0  0.28 0.08 0  0.3200000000000001 0.08 0  0.3600000000000001 0.08 0  0.3999999999999999 0.08 0  0.4399999999999999 0.08 0  0.48 0.08 0  0.52 0.08 0  0.5600000000000001 0.08 0  0.6000000000000001 0.08 0  0.6399999999999999 0.08 0  0.6799999999999999 0.08 0  0.72 0.08 0  0.76 0.08 0  0.8 0.08 0  0.8400000000000001 0.08 0  0.8799999999999999 0.08 0  0.9199999999999999 0.08 0  0.96 0.08 0  1 0.08 0  -1 0.09600000000000002 0  -0.96 0.09600000000000002 0  -0.92 0.09600000000000002 0  -0.88 0.09600000000000002 0  -0.84 0.09600000000000002 0  -0.8 0.09600000000000002 0  -0.76 0.09600000000000002 0  -0.72 0.09600000000000002 0  -0.6799999999999999 0.09600000000000002 0  -0.64 0.09600000000000002 0  -0.6 0.09600000000000002 0  -0.5600000000000001 0.09600000000000002 0  -0.52 0.09600000000000002 0  -0.48 0.09600000000000002 0  -0.4399999999999999 0.09600000000000002 0  -0.4 0.09600000000000002 0  -0.36 0.09600000000000002 0  -0.32 0.09600000000000002 0  -0.28 0.09600000000000002 0  -0.24 0.09600000000000002 0  -0.2 0.09600000000000002 0  -0.16 0.09600000000000002 0  -0.12 0.09600000000000002 0  -0.07999999999999996 0.09600000000000002 0  -0.04000000000000004 0.09600000000000002 0  0 0.09600000000000002 0  0.04000000000000004 0.09600000000000002 0  0.08000000000000007 0.09600000000000002 0  0.1200000000000001 0.09600000000000002 0  0.1599999999999999 0.09600000000000002 0  0.2 0.09600000000000002 0  0.24 0.09600000000000002 0  0.28 0.09600000000000002 0  0.3200000000000001 0.09600000000000002 0  0.3600000000000001 0.09600000000000002 0  0.3999999999999999 0.09600000000000002 0  0.4399999999999999 0.09600000000000002 0  0.48 0.09600000000000002 0  0.52 0.09600000000000002 0  0.5600000000000001 0.09600000000000002 0  0.6000000000000001 0.09600000000000002 0  0.6399999999999999 0.09600000000000002 0  0.6799999999999999 0.09600000000000002 0  0.72 0.09600000000000002 0  0.76 0.09600000000000002 0  0.8 0.09600000000000002 0  0.8400000000000001 0.09600000000000002 0  0.8799999999999999 0.09600000000000002 0  0.9199999999999999 0.09600000000000002 0  0.96 0.09600000000000002 0  1 0.09600000000000002 0  -1 0.112 0  -0.96 0.112 0  -0.92 0.112 0  -0.88 0.112 0  -0.84 0.112 0  -0.8 0.112 0  -0.76 0.112 0  -0.72 0.112 0  -0.6799999999999999 0.112 0  -0.64 0.112 0  -0.6 0.112 0  -0.5600000000000001 0.112 0  -0.52 0.112 0  -0.48 0.112 0  -0.4399999999999999 0.112 0  -0.4 0.112 0  -0.36 0.112 0  -0.32 0.112 0  -0.28 0.112 0  -0.24 0.112 0  -0.2 0.112 0  -0.16 0.112 0  -0.12 0.112 0  -0.07999999999999996 0.112 0  -0.04000000000000004 0.112 0  0 0.112 0  0.04000000000000004 0.112 0  0.08000000000000007 0.112 0  0.1200000000000001 0.112 0  0.1599999999999999 0.112 0  0.2 0.112 0  0.24 0.112 0  0.28 0.112 0  0.3200000000000001 0.112 0  0.3600000000000001 0.112 0  0.3999999999999999 0.112 0  0.4399999999999999 0.112 0  0.48 0.112 0  0.52 0.112 0  0.5600000000000001 0.112 0  0.6000000000000001 0.112 0  0.6399999999999999 0.112 0  0.6799999999999999 0.112 0  0.72 0.112 0  0.76 0.112 0  0.8 0.112 0  0.8400000000000001 0.112 0  0.8799999999999999 0.112 0  0.9199999999999999 0.112 0  0.96 0.112 0  1 0.112 0  -1 0.128 0  -0.96 0.128 0  -0.92 0.128 0  -0.88 0.128 0  -0.84 0.128 0  -0.8 0.128 0  -0.76 0.128 0  -0.72 0.128 0  -0.6799999999999999 0.128 0  -0.64 0.128 0  -0.6 0.128 0  -0.5600000000000001 0.128 0  -0.52 0.128 0  -0.48 0.128 0  -0.4399999999999999 0.128 0  -0.4 0.128 0  -0.36 0.128 0  -0.32 0.128 0  -0.28 0.128 0  -0.24 0.128 0  -0.2 0.128 0  -0.16 0.128 0  -0.12 0.128 0  -0.07999999999999996 0.128 0  -0.04000000000000004 0.128 0  0 0.128 0  0.04000000000000004 0.128 0  0.08000000000000007 0.128 0  0.1200000000000001 0.128 0  0.1599
[...]
<PointData  Scalars="f_100"> 
<DataArray  type="Float64"  Name="f_100"  format="ascii">6.0000000000000002e-05  5.4274422446194958e-05  5.2994839634973000e-05  5.2547566499184311e-05  5.2325009900891811e-05  5.2125030901639124e-05  5.1866267684239251e-05  5.1503577474756183e-05  5.1003198587344580e-05  5.0337168961923238e-05  4.9484096400857934e-05  4.8431804176978451e-05  4.7179979246336637e-05  4.5741818680932814e-05  4.4144066879434441e-05  4.2424952433597816e-05  4.0627850094293911e-05  3.8771000439131796e-05  3.6690696451755529e-05  2.9378400647911791e-05  2.1132707399492001e-05  1.7338522550955003e-05  1.4794761695271568e-05  1.2943788922735333e-05  1.1534203963402711e-05  1.0416907586564266e-05  9.4948361648180827e-06  8.7095495872699102e-06  8.0531329426671650e-06  7.6333533922365110e-06  7.9069588615180314e-06  1.0779946402112777e-05  1.4886377742491899e-05  1.5124954050935253e-05  1.3988725892989340e-05  1.2402643376798945e-05  1.0718270158973488e-05  9.0751267580667458e-06  7.5396407242079209e-06  6.1485138707870497e-06  4.9217609202649059e-06  3.8671112260061406e-06  2.9824019100040060e-06  2.2577621145535727e-06  1.6778755415214154e-06  1.2241594884666801e-06  8.7654218730405744e-07  6.1420979921764316e-07  4.1339960258048758e-07  2.3583142278459236e-07  0.0000000000000000e+00  6.0000000000000002e-05  5.4548532062410372e-05  5.3262195864812216e-05  5.2811818511525606e-05  5.2588073319196646e-05  5.2387356645457712e-05  5.2127763270727286e-05  5.1763886100254233e-05  5.1261776833830406e-05  5.0593309885681739e-05  4.9736947671415489e-05  4.8680398598032525e-05  4.7423282475295355e-05  4.5978792438876229e-05  4.4373741745193617e-05  4.2646502912854466e-05  4.0840675156371466e-05  3.8975007058331369e-05  3.6868165337238034e-05  3.0153841190844947e-05  2.2196255323133549e-05  1.8211104367799067e-05  1.5526904041717704e-05  1.3575461490711227e-05  1.2091082119999887e-05  1.0916098709500524e-05  9.9477601580668042e-06  9.1235272335053187e-06  8.4322292832743378e-06  7.9783459619102670e-06  8.2136666141418323e-06  1.0896127674051963e-05  1.4955990168369303e-05  1.5206938065507936e-05  1.4067062360226843e-05  1.2473490523286551e-05  1.0780515388957679e-05  9.1286551344208793e-06  7.5847941488425887e-06  6.1858939784977601e-06  4.9521306514912460e-06  3.8913247648279476e-06  3.0013458465570733e-06  2.2723059915760799e-06  1.6888332488421258e-06  1.2322626166820019e-06  8.8242535740635631e-07  6.1840752388847208e-07  4.1635569799836323e-07  2.3793302967946155e-07  0.0000000000000000e+00  6.0000000000000002e-05  5.4818595662870851e-05  5.3528731030925098e-05  5.3076713373955602e-05  5.2852240146308982e-05  5.2650929875165880e-05  5.2390549565189747e-05  5.2025495501335964e-05  5.1521653753335094e-05  5.0850741397872026e-05  4.9991076981079331e-05  4.8930254141503402e-05  4.7667825304538539e-05  4.6216979510185058e-05  4.4604599135726608e-05  4.2869202936365336e-05  4.1054632303901672e-05  3.9180290881096398e-05  3.7051758168423423e-05  3.0862008651208226e-05  2.3251431027716440e-05  1.9081803189801468e-05  1.6265264807072030e-05  1.4217197660360203e-05  1.2659996051035024e-05  1.1428364712351124e-05  1.0414244825006904e-05  9.5511404828507675e-06  8.8245927734533415e-06  8.3354289310934996e-06  8.5278019097991044e-06  1.1039100532136717e-05  1.5036546614409113e-05  1.5292894401723597e-05  1.4146947122086693e-05  1.2545083559127055e-05  1.0843225716726864e-05  9.1825311349425251e-06  7.6302293349667222e-06  6.2235076186316038e-06  4.9826933799912831e-06  3.9156958023906485e-06  3.0204162372661571e-06  2.2869496182393375e-06  1.6998682223643310e-06  1.2404245135519833e-06  8.8835244102565567e-07  6.2263749138986822e-07  4.1933420137158772e-07  2.4003691931324694e-07  0.0000000000000000e+00  6.0000000000000002e-05  5.5083817309706561e-05  5.3794404502724854e-05  5.3342244354188568e-05  5.3117512966810887e-05  5.2915756204650904e-05  5.2654633262926771e-05  5.2288412857136883e-05  5.1782836824349995e-05  5.1109471203313247e-05  5.0246492200047273e-05  4.9181378761971259e-05  4.7913615665232676e-05  4.6456387672846275e-05  4.4836646530653215e-05  4.3093059489256378e-05  4.1269727397215717e-05  3.9386843631620906e-05  3.7241085729847935e-05  3.1512186143721624e-05  2.4271152884566764e-05  1.9945755302368826e-05  1.7007746882185091e-05  1.4867922944065098e-05  1.3240440526495968e-05  1.1953557844541779e-05  1.0894381073865876e-05  9.9926479524449626e-06  9.2306154407059726e-06  8.7051586152663178e-06  8.8508608716379288e-06  1.1205655792187537e-05  1.5128220801087619e-05  1.5382884639911194e-05  1.4228405411572885e-05  1.2617431984331615e-05  1.0906405233487928e-05  9.2367567745356758e-06  7.6759472995041610e-06  6.2613552011964196e-06  5.0134490968627432e-06  3.9402240381865033e-06  3.0396125938507314e-06  2.3016924054332415e-06  1.7109798413494071e-06  1.2486445763613836e-06  8.9432288044277117e-07  6.2689918261687184e-07  4.2233457323052437e-07  2.4214211758407879e-07  0.0000000000000000e+00  6.0000000000000002e-05  5.5343638792643329e-05  5.4059191867294315e-05  5.3608408833466321e-05  5.3383895648296421e-05  5.3181841626840910e-05  5.2920021130421389e-05  5.2552645294406886e-05  5.2045333405801631e-05  5.1369506838938402e-05  5.0503200992849596e-05  4.9433780182153866e-05  4.8160661245544336e-05  4.6697024468827453e-05  4.5069891200105417e-05  4.3318079393940797e-05  4.1485966205778322e-05  3.9594660672152071e-05  3.7435756920895268e-05  3.2112578776548335e-05  2.5242341231827754e-05  2.0799488545794502e-05  1.7752568380087433e-05  1.5526720381331685e-05  1.3832012291627147e-05  1.2491604365288773e-05  1.1388316149373013e-05  1.0448350057224483e-05  9.6507124569845090e-06  9.0880756758120389e-06  9.1840987485140033e-06  1.1393499625117860e-05  1.5231141339487872e-05  1.5476954699029039e-05  1.4311455870123859e-05  1.2690543176078466e-05  1.0970057408317212e-05  9.2913339547068359e-06  7.7219491373272024e-06  6.2994372982755802e-06  5.0443979962987429e-06  3.9649093926618657e-06  3.0589346509930150e-06  2.3165339772718384e-06  1.7221676802622667e-06  1.2569223747174765e-06  9.0033626635748425e-07  6.3119220813438262e-07  4.2535640433443436e-07  2.4424804908284776e-07  0.0000000000000000e+00  6.0000000000000002e-05  5.5597696327765078e-05  5.4323082817186358e-05  5.3875208082204782e-05  5.3651393278953835e-05  5.3449192502725331e-05  5.3186720014507606e-05  5.2818199907673146e-05  5.2309150765660058e-05  5.1630855709876017e-05  5.0761210860804156e-05  4.9687465939941544e-05  4.8408969539676043e-05  4.6938897251908958e-05  4.5304340247704088e-05  4.3544269343104042e-05  4.1703354410338476e-05  3.9803739918124490e-05  3.7635388919133716e-05  3.2670342872484478e-05  2.6160058073807448e-05  2.1640238186714672e-05  1.8498161262079704e-05  1.6192782986155147e-05  1.4434380425570187e-05  1.3042485463677191e-05  1.1896242053080724e-05  1.0918583896714078e-05  1.0085325155060352e-05  9.4847244824553993e-06  9.5285973163076633e-06  1.1601003839139819e-05  1.5345392599163143e-05  1.5575135141463134e-05  1.4396110894555529e-05  1.2764422512801074e-05  1.1034185122093298e-05  9.3462644616442155e-06  7.7682360019748808e-06  6.3377546146983588e-06  5.0755404402436263e-06  3.9897519688673547e-06  3.0783823274811901e-06  2.3314741337503726e-06  1.7334314744281618e-06  1.2652576201091063e-06  9.0639231157984527e-07  6.3551628520766049e-07  4.2839939342256813e-07  2.4635446053361499e-07  0.0000000000000000e+00  6.0000000000000002e-05  5.5845784624296218e-05  5.4586079663667050e-05  5.4142647077863200e-05  5.3920012115892435e-05  5.3717815552255423e-05  5.3454736849935330e-05  5.3085083775883506e-05  5.2574296104543068e-05  5.1893525119205409e-05  5.1020529177010109e-05  4.9942443427145856e-05  4.8658547888241626e-05  4.7182013227045208e-05  4.5540000645908465e-05  4.3771635926889799e-05  4.1921897607003896e-05  4.0014080972245775e-05  3.7839614251430693e-05  3.3191668141585184e-05  2.7023995931381881e-05  2.2465744477504603e-05  1.9243139986494705e-05  1.6865395699089515e-05  1.5047274763093993e-05  1.3606230003755755e-05  1.2418391605891224e-05  1.1403722405439348e-05  1.0534924400430970e-05  9.8956648989310750e-06  9.8853145392215266e-06  1.1827026724200493e-05  1.5471016918645695e-05  1.5677441404128386e-05  1.4482376926801226e-05  1.2839073476649265e-05  1.1098790695450786e-05  9.4015499645955320e-06  7.8148090897349666e-06  6.3763079638657977e-06  5.1068769292896402e-06  4.0147520209030202e-06  3.0979556942574834e-06  2.3465128200552958e-06  1.7447710918224964e-06  1.2736501409140584e-06  9.1249082944028384e-07  6.3987121895700111e-07  4.3146332899640517e-07  2.4846135786974395e-07  0.0000000000000000e+00  6.0000000000000002e-05  5.6087827115536150e-05  5.4848196292427497e-05  5.4410734352737056e-05  5.4189759541353890e-05  5.3987717846490695e-05  5.3724078665517848e-05  5.3353303976118754e-05  5.2840776575187669e-05  5.2157522292498159e-05  5.1281163215197121e-05  5.0198719921428410e-05  4.8909403511517306e-05  4.7426379482762030e-05  4.5776879265100070e-05  4.4000185655326648e-05  4.2141601312426523e-05  4.0225684442654437e-05  3.8048085448593912e-05  3.3681881886646952e-05  2.7836383988799134e-05  2.3274224043666565e-05  1.9986297796059840e-05  1.7543932355774632e-05  1.5670483973652432e-05  1.4182913687322722e-05  1.2955038683300046e-05  1.1904175825900695e-05  1.1000014102591056e-05  1.0321479914524943e-05  1.0255121831852099e-05  1.2070784387126193e-05  1.5608017434236157e-05  1.5783873976094442e-05  1.4570254699923359e-05  1.2914497739637958e-05  1.1163875912307303e-05  9.4571920146546522e-06  7.8616696265517109e-06  6.4150982478412637e-06  5.1384080787173790e-06  4.0399099279560590e-06  3.1176549481444795e-06  2.3616501013419052e-06  1.7561865098982089e-06  1.2820998618793504e-06  9.1863171607178535e-07  6.4425688689484140e-07  4.3454807438304835e-07  2.5056895464198799e-07  0.0000000000000000e+00  6.0000000000000002e-05  5.6323851345131357e-05  5.5109457424241365e-05  5.4679481862431876e-05  5.4460644024523371e-05  5.4258906800490011e-05  5.3994752589021774e-05  5.3622867594861489e-05  5.3108599298508064e-05  5.2422854398062642e-05  5.1543120173514970e-05  5.0456302612616842e-05  4.9161543536832797e-05  4.7672003017829449e-05  4.6014982897520451e-05  4.4229924976850593e-05  4.2362470969549240e-05  4.0438551414546593e-05  3.8260477840386816e-05  3.4145557893616151e-05  2.8600748990874304e-05  2.4064382191317516e-05  2.0726613478899135e-05  1.8227860271966700e-05  1.6303858817914160e-05  1.4772661739833528e-05  1.3506500771698378e-05  1.2420394485791834e-05  1.1481134809724480e-05  1.0762781089966764e-05  1.0638832507848459e-05  1.2331758257629929e-05  1.5756361059425325e-05  1.5894418540934468e-05  1.4659739451471586e-05  1.2990695237769845e-05  1.1229442040206077e-05  9.5131920440350055e-06  7.9088188573111725e-06  6.4541264409700018e-06  5.1701345987759891e-06  4.0652261729412655e-06  3.1374803902406940e-06  2.3768861420052080e-06  1.7676777965507069e-06  1.2906067872734359e-06  9.2481493586913605e-07  6.4867322623674634e-07  4.3765355546970437e-07  2.5267762983993670e-07  0.0000000000000000e+00  6.0000000000000002e-05  5.6553968663426942e-05  5.5369898078326053e-05  5.4948904868051463e-05  5.4732675087118372e-05  5.4531390166551875e-05  5.4266765850937137e-05  5.3893781737225111e-05  5.3377771376833150e-05  5.2689528563647193e-05  5.1806407194156911e-05  5.0715198624401951e-05  4.9414975021142463e-05  4.7918890763229031e-05  4.6254318276982380e-05  4.4460860293626990e-05  4.2584511953557791e-05  4.0652683048674740e-05  3.8476490941777678e-05  3.4586620774271272e-05  2.9321191098326832e-05  2.4835416716544960e-05  2.1463261437015212e-05  1.8916748535969112e-05  1.6947318173292108e-05  1.5375653563222938e-05  1.4073142855093673e-05  1.2952872345252041e-05  1.1978867391255907e-05  1.1220212933018727e-05  1.1037223880997089e-05  1.2609628542805112e-05  1.5915981322268290e-05  1.6009046099524296e-05  1.4750821113283977e-05  1.3067664236582054e-05  1.1295489848466177e-05  9.5695513658826951e-06  7.9562580371306960e-06  6.4933935764200063e-06  5.2020572784580855e-06  4.0907013249293847e-06  3.1574324081554461e-06  2.3922211886429577e-06  1.7792450944808444e-06  1.2991709870525216e-06  9.3104050955476576e-07  6.5312022348698013e-07  4.4077975061302109e-07  2.5478789352917086e-07  0.0000000000000000e+00  6.0000000000000002e-05  5.6778357525783363e-05  5.5629563163390547e-05  5.5219021826834930e-05  5.5005863271305175e-05  5.4805176027494482e-05  5.4540125787246216e-05  5.4166053534477256e-05  5.3648299904812998e-05  5.2957551890224819e-05  5.2071031379553127e-05  5.0975415032234084e-05  4.9669704969632910e-05  4.8167049600254135e-05  4.6494892095110605e-05  4.4692997974250437e-05  4.2807729577823765e-05  4.0868080283813847e-05  3.8695848790182740e-05  3.5008441311207021e-05  3.0001969373868302e-05  2.5587001031116033e-05  2.2195621810080124e-05  1.9610277889642297e-05  1.7600856520150216e-05  1.5992128513078758e-05  1.4655382099742408e-05  1.3502151033359954e-05  1.2493836830131005e-05  1.1694456823940867e-05  1.1451054751614700e-05  1.2904226326741925e-05  1.6086780886007984e-05  1.6127713086526174e-05  1.4843484485195477e-05  1.3145401390886375e-05  1.1362019624930328e-05  9.6262711746633864e-06  8.0039884243411996e-06  6.5329007351422164e-06  5.2341769721553887e-06  4.1163360246925614e-06  3.1775114614002388e-06  2.4076555560522712e-06  1.7908886083482782e-06  1.3077925855007310e-06  9.3730850438288700e-07  6.5759790588895990e-07  4.4392668231961980e-07  2.5690035897388164e-07  0.0000000000000000e+00  6.0000000000000002e-05  5.6997249799732525e-05  5.5888507142218198e-05  5.5489854287250197e-05  5.5280220108793414e-05  5.5080272789734758e-05  5.4814839841293441e-05  5.4439690150135356e-05  5.3920191978398468e-05  5.3226931463372859e-05  5.2336999805740600e-05  5.1236958878092903e-05  4.9925740351071384e-05  4.8416486375432515e-05  4.6736711014733507e-05  4.4926344364298060e-05  4.3032129099724574e-05  4.1084743623644922e-05  3.8918299517081373e-05  3.5413921111399633e-05  3.0647272806182036e-05  2.6319249105397385e-05  2.2923289035544885e-05  2.0308251033877705e-05  1.8264552168335428e-05  1.6622392338728960e-05  1.5253693047915956e-05  1.4068824225375590e-05  1.3026716147241793e-05  1.2186234827404449e-05  1.1881079519424672e-05  1.3215499092201479e-05  1.6268633656673038e-05  1.6250361491509776e-05  1.4937709398769217e-05  1.3223901800917855e-05  1.1429031191936472e-05  9.6833525471422755e-06  8.0520112749025900e-06  6.5726490368352016e-06  5.2664945886888620e-06  4.1421309728144804e-06  3.1977180693748393e-06  2.4231896157182565e-06  1.8026085942157960e-06  1.3164717519003324e-06  9.4361902609744811e-07  6.6210633440436536e-07  4.4709441036938336e-07  2.5901572013744315e-07  0.0000000000000000e+00  6.0000000000000002e-05  5.7210919584251048e-05  5.6146793731494919e-05  5.5761426785512852e-05  5.5555758090204095e-05  5.5356689175981186e-05  5.5090915564845458e-05  5.4714698784863833e-05  5.4193454702227260e-05  5.3497674362671031e-05  5.2604319533409159e-05  5.1499837182685626e-05  5.0183088110475347e-05  4.8667207912838774e-05  4.6979781680936619e-05  4.5160905795126887e-05  4.3257715726295562e-05  4.1302672991515894e-05  3.9143614374481662e-05  3.5805566407520292e-05  3.1261101894044483e-05  2.7032669028022894e-05  2.3646078048888516e-05  2.1010602721662876e-05  1.8938575820642487e-05  1.7266824028951004e-05  1.5868613161710216e-05  1.4653542281072489e-05  1.3578230475497160e-05  1.2696313567741798e-05  1.2328059826632688e-05  1.3543485924910609e-05  1.6461386432518963e-05  1.6376918993706343e-05  1.5033470876048102e-05  1.3303159066654086e-05  1.1496523922006499e-05  9.7407964439654015e-06  8.1003278380353820e-06  6.6126396325714175e-06  5.2990110822960047e-06  4.1680869199103000e-06  3.2180528014857462e-06  2.4388237863492481e-06  1.8144053508740978e-06  1.3252086928674263e-06  9.4997221232817752e-07  6.6664559794491567e-07  4.5028302611417919e-07  2.6113473363888511e-07  0.0000000000000000e+00  6.0000000000000002e-05  5.7419674125237044e-05  5.6404495610538839e-05  5.6033766741229390e-05  5.5832490634004382e-05  5.5634434217400862e-05  5.5368360618418396e-05  5.4991086680364440e-05  5.4468095195692184e-05  5.3769787669467105e-05  5.2872997617035894e-05  5.1764056955530889e-05  5.0441755179580836e-05  4.8919221024263355e-05  4.7224110730198110e-05  4.5396688591236457e-05  4.3484494619714726e-05  4.1521867639210354e-05  3.9371586385633551e-05  3.6185551648537770e-05  3.1847215530712345e-05  2.7728111935346733e-05  2.4364027850847228e-05  2.1717409302948589e-05  1.9623199243279802e-05  1.7925882916030836e-05  1.6500748626905907e-05  1.5257017100168735e-05  1.4149161295296011e-05  1.3225508256582246e-05  1.2792774398754598e-05  1.3888299720182866e-05  1.6664860082647218e-05  1.6507299117797425e-05  1.5130739287393845e-05  1.3383165341697795e-05  1.1564496753637687e-05  9.7986037118417586e-06  8.1489393528870896e-06  6.6528736988013842e-06  5.3317274452310169e-06  4.1942046585815594e-06  3.2385162690164244e-06  2.4545585260922180e-06  1.8262792127094902e-06  1.3340036460534452e-06  9.5636822716537652e-07  6.7121580863021907e-07  4.5349264773430217e-07  2.6325820439754717e-07  0.0000000000000000e+00  6.0000000000000002e-05  5.7623846478996801e-05  5.6661694121478745e-05  5.6306904350426074e-05  5.6110432054465389e-05  5.5913517245157497e-05  5.5647182770940402e-05  5.5268861122418455e-05  5.4744120597919254e-05  5.4043278473298455e-05  5.3143041112447671e-05  5.2029625203305664e-05  5.0701748485503294e-05  4.9172532517622767e-05  4.7469704797952065e-05  4.5633699076460404e-05  4.3712470902648436e-05  4.1742326098201618e-05  3.9602028748367237e-05  3.6555773894501330e-05  3.2409115922433776e-05  2.8406721539145617e-05  2.5077402542926070e-05  2.2428897564137329e-05  2.0318803910917234e-05  1.8600115950916157e-05  1.7150780363837121e-05  1.5880027169256049e-05  1.4740350838211587e-05  1.3774686915200528e-05  1.3276027582914732e-05  1.4250114468625024e-05  1.6878850261948681e-05  1.6641401416898740e-05  1.5229480511702731e-05  1.3463911387812241e-05  1.1632948207494539e-05  9.8567750863189814e-06  8.1978470460813451e-06  6.6933524325009806e-06  5.3646447016937070e-06  4.2204850167971380e-06  3.2591091184358443e-06  2.4703943261267348e-06  1.8382305438368033e-06  1.3428568749660918e-06  9.6280725670033613e-07  6.7581709788555477e-07  4.5672341627516552e-07  2.6538697432651241e-07  0.0000000000000000e+00  6.0000000000000002e-05  5.7823789632277424e-05  5.6918478949955650e-05  5.6580872474662480e-05  5.6389597528232383e-05  5.6193947881247630e-05  5.5927389898809130e-05  5.5548029443213415e-05  5.5021538071844236e-05  5.4318153877207645e-05  5.3414457083092195e-05  5.2296548936765945e-05  5.0963074957915315e-05  4.9427149203927662e-05  4.7716570524863987e-05  4.5871943579203760e-05  4.3941649663501758e-05  4.1964046163913018e-05  3.9834773086812637e-05  3.6917899158187304e-05  3.2950055176312231e-05  2.9069887740158327e-05  2.5786690195382174e-05  2.3145452816102292e-05  2.1025889551170337e-05  1.9290165095709808e-05  1.7819470212165232e-05  1.6523422784059648e-05  1.5352706661897982e-05  1.4344774810321253e-05  1.3778656962772905e-05  1.4629156239632343e-05  1.7103127680883036e-05  1.6779111687979184e-05  1.5329656101632894e-05  1.3545386630950332e-05  1.1701876403226714e-05  9.9153111951400127e-06  8.2470521300219441e-06  6.7340770472672591e-06  5.3977639028524395e-06  4.2469288524454385e-06  3.2798320258869824e-06  2.4863317053890701e-06  1.8502597332689631e-06  1.3517686647070145e-06  9.6928950535611798e-07  6.8044961322660498e-07  4.5997549231939174e-07  2.6752191354198706e-07  0.0000000000000000e+00  6.0000000000000002e-05  5.8019871834879031e-05  5.7174947780127545e-05  5.6855706525276235e-05  5.6670003059206220e-05  5.6475736028586966e-05  5.6208989984397493e-05  5.5828599023065127e-05  5.5300354807543693e-05  5.4594421002148839e-05  5.3687252605249499e-05  5.2564835176498157e-05  5.1225741535009257e-05  4.968307790307002