<?xml version="1.0"?>
<VTKFile type="UnstructuredGrid"  version="0.1"  >
<UnstructuredGrid>
<Piece  NumberOfPoints="2601" NumberOfCells="5000">
<Points>
<DataArray  type="Float64"  NumberOfComponents="3"  format="ascii">-1 0 0  -0.96 0 0  -0.92 0 0  -0.88 0 0  -0.84 0 0  -0.8 0 0  -0.76 0 0  -0.72 0 0  -0.6799999999999999 0 0  -0.64 0 0  -0.6 0 0  -0.5600000000000001 0 0  -0.52 0 0  -0.48 0 0  -0.4399999999999999 0 0  -0.4 0 0  -0.36 0 0  -0.32 0 0  -0.28 0 0  -0.24 0 0  -0.2 0 0  -0.16 0 0  -0.12 0 0  -0.07999999999999996 0 0  -0.04000000000000004 0 0  0 0 0  0.04000000000000004 0 0  0.08000000000000007 0 0  0.1200000000000001 0 0  0.1599999999999999 0 0  0.2 0 0  0.24 0 0  0.28 0 0  0.3200000000000001 0 0  0.3600000000000001 0 0  0.3999999999999999 0 0  0.4399999999999999 0 0  0.48 0 0  0.52 0 0  0.5600000000000001 0 0  0.6000000000000001 0 0  0.6399999999999999 0 0  0.6799999999999999 0 0  0.72 0 0  0.76 0 0  0.8 0 0  0.8400000000000001 0 0  0.8799999999999999 0 0  0.9199999999999999 0 0  0.96 0 0  1 0 0  -1 0.016 0  -0.96 0.016 0  -0.92 0.016 0  -0.88 0.016 0  -0.84 0.016 0  -0.8 0.016 0  -0.76 0.016 0  -0.72 0.016 0  -0.6799999999999999 0.016 0  -0.64 0.016 0  -0.6 0.016 0  -0.5600000000000001 0.016 0  -0.52 0.016 0  -0.48 0.016 0  -0.4399999999999999 0.016 0  -0.4 0.016 0  -0.36 0.016 0  -0.32 0.016 0  -0.28 0.016 0  -0.24 0.016 0  -0.2 0.016 0  -0.16 0.016 0  -0.12 0.016 0  -0.07999999999999996 0.016 0  -0.04000000000000004 0.016 0  0 0.016 0  0.04000000000000004 0.016 0  0.08000000000000007 0.016 0  0.1200000000000001 0.016 0  0.1599999999999999 0.016 0  0.2 0.016 0  0.24 0.016 0  0.28 0.016 0  0.3200000000000001 0.016 0  0.3600000000000001 0.016 0  0.3999999999999999 0.016 0  0.4399999999999999 0.016 0  0.48 0.016 0  0.52 0.016 0  0.5600000000000001 0.016 0  0.6000000000000001 0.016 0  0.6399999999999999 0.016 0  0.6799999999999999 0.016 0  0.72 0.016 0  0.76 0.016 0  0.8 0.016 0  0.8400000000000001 0.016 0  0.8799999999999999 0.016 0  0.9199999999999999 0.016 0  0.96 0.016 0  1 0.016 0  -1 0.032 0  -0.96 0.032 0  -0.92 0.032 0  -0.88 0.032 0  -0.84 0.032 0  -0.8 0.032 0  -0.76 0.032 0  -0.72 0.032 0  -0.6799999999999999 0.032 0  -0.64 0.032 0  -0.6 0.032 0  -0.5600000000000001 0.032 0  -0.52 0.032 0  -0.48 0.032 0  -0.4399999999999999 0.032 0  -0.4 0.032 0  -0.36 0.032 0  -0.32 0.032 0  -0.28 0.032 0  -0.24 0.032 0  -0.2 0.032 0  -0.16 0.032 0  -0.12 0.032 0  -0.07999999999999996 0.032 0  -0.04000000000000004 0.032 0  0 0.032 0  0.04000000000000004 0.032 0  0.08000000000000007 0.032 0  0.1200000000000001 0.032 0  0.1599999999999999 0.032 0  0.2 0.032 0  0.24 0.032 0  0.28 0.032 0  0.3200000000000001 0.032 0  0.3600000000000001 0.032 0  0.3999999999999999 0.032 0  0.4399999999999999 0.032 0  0.48 0.032 0  0.52 0.032 0  0.5600000000000001 0.032 0  0.6000000000000001 0.032 0  0.6399999999999999 0.032 0  0.6799999999999999 0.032 0  0.72 0.032 0  0.76 0.032 0  0.8 0.032 0  0.8400000000000001 0.032 0  0.8799999999999999 0.032 0  0.9199999999999999 0.032 0  0.96 0.032 0  1 0.032 0  -1 0.04800000000000001 0  -0.96 0.04800000000000001 0  -0.92 0.04800000000000001 0  -0.88 0.04800000000000001 0  -0.84 0.04800000000000001 0  -0.8 0.04800000000000001 0  -0.76 0.04800000000000001 0  -0.72 0.04800000000000001 0  -0.6799999999999999 0.04800000000000001 0  -0.64 0.04800000000000001 0  -0.6 0.04800000000000001 0  -0.5600000000000001 0.04800000000000001 0  -0.52 0.04800000000000001 0  -0.48 0.04800000000000001 0  -0.4399999999999999 0.04800000000000001 0  -0.4 0.04800000000000001 0  -0.36 0.04800000000000001 0  -0.32 0.04800000000000001 0  -0.28 0.04800000000000001 0  -0.24 0.04800000000000001 0  -0.2 0.04800000000000001 0  -0.16 0.04800000000000001 0  -0.12 0.04800000000000001 0  -0.07999999999999996 0.04800000000000001 0  -0.04000000000000004 0.04800000000000001 0  0 0.04800000000000001 0  0.04000000000000004 0.04800000000000001 0  0.08000000000000007 0.04800000000000001 0  0.1200000000000001 0.04800000000000001 0  0.1599999999999999 0.04800000000000001 0  0.2 0.04800000000000001 0  0.24 0.04800000000000001 0  0.28 0.04800000000000001 0  0.3200000000000001 0.04800000000000001 0  0.3600000000000001 0.04800000000000001 0  0.3999999999999999 0.04800000000000001 0  0.4399999999999999 0.04800000000000001 0  0.48 0.04800000000000001 0  0.52 0.04800000000000001 0  0.5600000000000001 0.04800000000000001 0  0.6000000000000001 0.04800000000000001 0  0.6399999999999999 0.04800000000000001 0  0.6799999999999999 0.04800000000000001 0  0.72 0.04800000000000001 0  0.76 0.04800000000000001 0  0.8 0.04800000000000001 0  0.8400000000000001 0.04800000000000001 0  0.8799999999999999 0.04800000000000001 0  0.9199999999999999 0.04800000000000001 0  0.96 0.04800000000000001 0  1 0.04800000000000001 0  -1 0.064 0  -0.96 0.064 0  -0.92 0.064 0  -0.88 0.064 0  -0.84 0.064 0  -0.8 0.064 0  -0.76 0.064 0  -0.72 0.064 0  -0.6799999999999999 0.064 0  -0.64 0.064 0  -0.6 0.064 0  -0.5600000000000001 0.064 0  -0.52 0.064 0  -0.48 0.064 0  -0.4399999999999999 0.064 0  -0.4 0.064 0  -0.36 0.064 0  -0.32 0.064 0  -0.28 0.064 0  -0.24 0.064 0  -0.2 0.064 0  -0.16 0.064 0  -0.12 0.064 0  -0.07999999999999996 0.064 0  -0.04000000000000004 0.064 0  0 0.064 0  0.04000000000000004 0.064 0  0.08000000000000007 0.064 0  0.1200000000000001 0.064 0  0.1599999999999999 0.064 0  0.2 0.064 0  0.24 0.064 0  0.28 0.064 0  0.3200000000000001 0.064 0  0.3600000000000001 0.064 0  0.3999999999999999 0.064 0  0.4399999999999999 0.064 0  0.48 0.064 0  0.52 0.064 0  0.5600000000000001 0.064 0  0.6000000000000001 0.064 0  0.6399999999999999 0.064 0  0.6799999999999999 0.064 0  0.72 0.064 0  0.76 0.064 0  0.8 0.064 0  0.8400000000000001 0.064 0  0.8799999999999999 0.064 0  0.9199999999999999 0.064 0  0.96 0.064 0  1 0.064 0  -1 0.08 0  -0.96 0.08 0  -0.92 0.08 0  -0.88 0.08 0  -0.84 0.08 0  -0.8 0.08 0  -0.76 0.08 0  -0.72 0.08 0  -0.6799999999999999 0.08 0  -0.64 0.08 0  -0.6 0.08 0  -0.5600000000000001 0.08 0  -0.52 0.08 0  -0.48 0.08 0  -0.4399999999999999 0.08 0  -0.4 0.08 0  -0.36 0.08 0  -0.32 0.08 0  -0.28 0.08 0  -0.24 0.08 0  -0.2 0.08 0  -0.16 0.08 0  -0.12 0.08 0  -0.07999999999999996 0.08 0  -0.04000000000000004 0.08 0  0 0.08 0  0.04000000000000004 0.08 0  0.08000000000000007 0.08 0  0.1200000000000001 0.08 0  0.1599999999999999 0.08 0  0.2 0.08 0  0.24 0.08 0  0.28 0.08 0  0.3200000000000001 0.08 0  0.3600000000000001 0.08 0  0.3999999999999999 0.08 0  0.4399999999999999 0.08 0  0.48 0.08 0  0.52 0.08 0  0.5600000000000001 0.08 0  0.6000000000000001 0.08 0  0.6399999999999999 0.08 0  0.6799999999999999 0.08 0  0.72 0.08 0  0.76 0.08 0  0.8 0.08 0  0.8400000000000001 0.08 0  0.8799999999999999 0.08 0  0.9199999999999999 0.08 0  0.96 0.08 0  1 0.08 0  -1 0.09600000000000002 0  -0.96 0.09600000000000002 0  -0.92 0.09600000000000002 0  -0.88 0.09600000000000002 0  -0.84 0.09600000000000002 0  -0.8 0.09600000000000002 0  -0.76 0.09600000000000002 0  -0.72 0.09600000000000002 0  -0.6799999999999999 0.09600000000000002 0  -0.64 0.09600000000000002 0  -0.6 0.09600000000000002 0  -0.5600000000000001 0.09600000000000002 0  -0.52 0.09600000000000002 0  -0.48 0.09600000000000002 0  -0.4399999999999999 0.09600000000000002 0  -0.4 0.09600000000000002 0  -0.36 0.09600000000000002 0  -0.32 0.09600000000000002 0  -0.28 0.09600000000000002 0  -0.24 0.09600000000000002 0  -0.2 0.09600000000000002 0  -0.16 0.09600000000000002 0  -0.12 0.09600000000000002 0  -0.07999999999999996 0.09600000000000002 0  -0.04000000000000004 0.09600000000000002 0  0 0.09600000000000002 0  0.04000000000000004 0.09600000000000002 0  0.08000000000000007 0.09600000000000002 0  0.1200000000000001 0.09600000000000002 0  0.1599999999999999 0.09600000000000002 0  0.2 0.09600000000000002 0  0.24 0.09600000000000002 0  0.28 0.09600000000000002 0  0.3200000000000001 0.09600000000000002 0  0.3600000000000001 0.09600000000000002 0  0.3999999999999999 0.09600000000000002 0  0.4399999999999999 0.09600000000000002 0  0.48 0.09600000000000002 0  0.52 0.09600000000000002 0  0.5600000000000001 0.09600000000000002 0  0.6000000000000001 0.09600000000000002 0  0.6399999999999999 0.09600000000000002 0  0.6799999999999999 0.09600000000000002 0  0.72 0.09600000000000002 0  0.76 0.09600000000000002 0  0.8 0.09600000000000002 0  0.8400000000000001 0.09600000000000002 0  0.8799999999999999 0.09600000000000002 0  0.9199999999999999 0.09600000000000002 0  0.96 0.09600000000000002 0  1 0.09600000000000002 0  -1 0.112 0  -0.96 0.112 0  -0.92 0.112 0  -0.88 0.112 0  -0.84 0.112 0  -0.8 0.112 0  -0.76 0.112 0  -0.72 0.112 0  -0.6799999999999999 0.112 0  -0.64 0.112 0  -0.6 0.112 0  -0.5600000000000001 0.112 0  -0.52 0.112 0  -0.48 0.112 0  -0.4399999999999999 0.112 0  -0.4 0.112 0  -0.36 0.112 0  -0.32 0.112 0  -0.28 0.112 0  -0.24 0.112 0  -0.2 0.112 0  -0.16 0.112 0  -0.12 0.112 0  -0.07999999999999996 0.112 0  -0.04000000000000004 0.112 0  0 0.112 0  0.04000000000000004 0.112 0  0.08000000000000007 0.112 0  0.1200000000000001 0.112 0  0.1599999999999999 0.112 0  0.2 0.112 0  0.24 0.112 0  0.28 0.112 0  0.3200000000000001 0.112 0  0.3600000000000001 0.112 0  0.3999999999999999 0.112 0  0.4399999999999999 0.112 0  0.48 0.112 0  0.52 0.112 0  0.5600000000000001 0.112 0  0.6000000000000001 0.112 0  0.6399999999999999 0.112 0  0.6799999999999999 0.112 0  0.72 0.112 0  0.76 0.112 0  0.8 0.112 0  0.8400000000000001 0.112 0  0.8799999999999999 0.112 0  0.9199999999999999 0.112 0  0.96 0.112 0  1 0.112 0  -1 0.128 0  -0.96 0.128 0  -0.92 0.128 0  -0.88 0.128 0  -0.84 0.128 0  -0.8 0.128 0  -0.76 0.128 0  -0.72 0.128 0  -0.6799999999999999 0.128 0  -0.64 0.128 0  -0.6 0.128 0  -0.5600000000000001 0.128 0  -0.52 0.128 0  -0.48 0.128 0  -0.4399999999999999 0.128 0  -0.4 0.128 0  -0.36 0.128 0  -0.32 0.128 0  -0.28 0.128 0  -0.24 0.128 0  -0.2 0.128 0  -0.16 0.128 0  -0.12 0.128 0  -0.07999999999999996 0.128 0  -0.04000000000000004 0.128 0  0 0.128 0  0.04000000000000004 0.128 0  0.08000000000000007 0.128 0  0.1200000000000001 0.128 0  0.1599
[...]
<PointData  Scalars="f_100"> 
<DataArray  type="Float64"  Name="f_100"  format="ascii">6.0000000000000002e-05  5.2262151646755051e-05  4.7777594068317420e-05  4.3231726369056164e-05  3.8715301868329891e-05  3.4726075431721801e-05  3.1612885783806718e-05  2.9439281614909107e-05  2.8061765696914261e-05  2.7258985700809006e-05  2.6823977041774990e-05  2.6602609639344575e-05  2.6495294711059525e-05  2.6442494396860306e-05  2.6405331801734615e-05  2.6341819573605038e-05  2.6171596639522314e-05  2.5717690720905461e-05  2.4597212551280736e-05  1.9237790863419298e-05  1.2672196522059153e-05  8.8193081885634633e-06  5.8402220995277627e-06  3.6164759706712976e-06  2.0869010164805901e-06  1.1246425794031498e-06  5.6864567084187813e-07  2.7126957685985831e-07  1.2280052749473566e-07  5.3127619688469695e-08  2.2681732358077588e-08  1.4138918311772410e-08  1.2539023542603481e-08  6.7745725681390456e-09  3.0397736662609784e-09  1.2384165554686776e-09  4.7662059449787078e-10  1.7648531999323719e-10  6.3463517579745586e-11  2.2279573755226561e-11  7.6610033437466084e-12  2.5860795845912743e-12  8.5843594440736424e-13  2.8058680184607118e-13  9.0408189274324645e-14  2.8744246737582073e-14  9.0254331842356914e-15  2.8007198588561595e-15  8.5828909849742602e-16  2.4999678856551157e-16  0.0000000000000000e+00  6.0000000000000002e-05  5.2539364098178181e-05  4.8037971638903478e-05  4.3471292263089121e-05  3.8931040257521916e-05  3.4917985170776945e-05  3.1784328237601012e-05  2.9595341767223524e-05  2.8207501045749635e-05  2.7398423493257848e-05  2.6959874962470603e-05  2.6736653238446011e-05  2.6628425970764439e-05  2.6575205347721661e-05  2.6537872795496243e-05  2.6474324251941023e-05  2.6304114924105427e-05  2.5850157850687343e-05  2.4716481582823267e-05  1.9764252526600592e-05  1.3373681845540924e-05  9.3413983043339383e-06  6.2040549785978998e-06  3.8531525071525917e-06  2.2297210066772983e-06  1.2046747398250986e-06  6.1048929891354118e-07  2.9180683646628219e-07  1.3232310457554419e-07  5.7321682299270763e-08  2.4430628145777781e-08  1.4433723674091818e-08  1.2642099522133314e-08  6.8374496955164789e-09  3.0682927055382075e-09  1.2501015330721098e-09  4.8114462662387681e-10  1.7817083377342346e-10  6.4073261938374761e-11  2.2494842397480632e-11  7.7354131400787366e-12  2.6113186177842004e-12  8.6685083663855941e-13  2.8334835962254764e-13  9.1301272439007819e-14  2.9029150295130932e-14  9.1151674015601135e-15  2.8286469147452375e-15  8.6688705041325613e-16  2.5265068242451055e-16  0.0000000000000000e+00  6.0000000000000002e-05  5.2812362271107862e-05  4.8297410681868655e-05  4.3711385785206456e-05  3.9147719395580700e-05  3.5110897067743338e-05  3.1956716897452057e-05  2.9752263432940351e-05  2.8354020598499001e-05  2.7538587722501064e-05  2.7096461395308427e-05  2.6871362809650935e-05  2.6762210897877543e-05  2.6708563844734184e-05  2.6671058879903912e-05  2.6607474602843965e-05  2.6437290212046595e-05  2.5983386254272394e-05  2.4839689552242238e-05  2.0243780509048681e-05  1.4067745411627205e-05  9.8604817258912586e-06  6.5698024962899732e-06  4.0931501318413406e-06  2.3756621164185535e-06  1.2870480212808068e-06  6.5385553872272310e-07  3.1323340352441606e-07  1.4232180273322782e-07  6.1752573770257375e-08  2.6286450583458124e-08  1.4844873650361576e-08  1.2774447007420617e-08  6.9081415889305187e-09  3.0987636079740878e-09  1.2623035547217012e-09  4.8581945647574588e-10  1.7990422453092784e-10  6.4699053342046585e-11  2.2715626019848311e-11  7.8117284604018715e-12  2.6372122886322959e-12  8.7548812904690023e-13  2.8618446132130645e-13  9.2218989577618555e-14  2.9322080818605732e-14  9.2074819430146177e-15  2.8573928053942411e-15  8.7574167959582061e-16  2.5537877959864167e-16  0.0000000000000000e+00  6.0000000000000002e-05  5.3080342558598166e-05  4.8555881675300875e-05  4.3952009374478741e-05  3.9365344756980702e-05  3.5304812825202314e-05  3.2130050000834425e-05  2.9910043663414948e-05  2.8501322060668211e-05  2.7679477536628601e-05  2.7233736932247492e-05  2.7006740041662596e-05  2.6896651881264932e-05  2.6842572651605149e-05  2.6804892952864425e-05  2.6741273496204373e-05  2.6571125189193939e-05  2.6117370669451253e-05  2.4966578859849788e-05  2.0682768984021306e-05  1.4736110420553929e-05  1.0373310296060060e-05  6.9360038940173584e-06  4.3356137036005530e-06  2.5241897697778583e-06  1.3714291459208314e-06  6.9854512205689897e-07  3.3543706476365000e-07  1.5273742295654575e-07  6.6391137127517577e-08  2.8237932864405404e-08  1.5356040795866147e-08  1.2936575388363062e-08  6.9867535521377192e-09  3.1311886514893641e-09  1.2750117977538559e-09  4.9063826455870142e-10  1.8168233682100937e-10  6.5339595361523768e-11  2.2941424870112697e-11  7.8897644696894474e-12  2.6636942962367361e-12  8.8432461986554055e-13  2.8908715721430954e-13  9.3158667267790936e-14  2.9622154326869440e-14  9.3020890073653464e-15  2.8868651492281528e-15  8.8482362646623919e-16  2.5817125432422416e-16  0.0000000000000000e+00  6.0000000000000002e-05  5.3342742750570296e-05  4.8813369713916771e-05  4.4193168112094356e-05  3.9583922607167168e-05  3.5499735121454744e-05  3.2304327158485206e-05  3.0068680969328825e-05  2.8649404395124571e-05  2.7821093022372218e-05  2.7371702803458719e-05  2.7142787037784136e-05  2.7031751582571440e-05  2.6977234728285341e-05  2.6939378078495893e-05  2.6875723963822840e-05  2.6705622682964113e-05  2.6252108334427385e-05  2.5096889909693175e-05  2.1086862779348495e-05  1.5369928806912097e-05  1.0877503564086525e-05  7.3013822122572155e-06  4.5798118807582339e-06  2.6748813101354793e-06  1.4575794978350041e-06  7.4442904765982769e-07  3.5835169019994056e-07  1.6353793065133515e-07  7.1222786866952945e-08  3.0280252779750299e-08  1.5955489718875360e-08  1.3128956036647675e-08  7.0733701224179201e-09  3.1655677619112126e-09  1.2882171426654439e-09  4.9559551124955401e-10  1.8350263485827614e-10  6.5993850768808941e-11  2.3171839975329408e-11  7.9693737823265832e-12  2.6907118123371854e-12  8.9334183174278715e-13  2.9205011891870261e-13  9.4118178067219248e-14  2.9928667585920415e-14  9.3987597042968849e-15  2.9169904938339768e-15  8.9410955431174127e-16  2.6102039947630924e-16  0.0000000000000000e+00  6.0000000000000002e-05  5.3599198075980320e-05  4.9069872715519752e-05  4.4434869790970797e-05  3.9803460057318248e-05  3.5695667521085563e-05  3.2479549154566478e-05  3.0228175088709731e-05  2.8798267618389008e-05  2.7963435055125521e-05  2.7510360780226348e-05  2.7279506259025415e-05  2.7167512905194464e-05  2.7112553214093317e-05  2.7074517475934023e-05  2.7010829188532605e-05  2.6840785645054134e-05  2.6387598275673746e-05  2.5230368307650184e-05  2.1460982640789827e-05  1.5965844454147495e-05  1.1371122141039246e-05  7.6647887792428189e-06  4.8250937545743618e-06  2.8273804373063200e-06  1.5453139963505207e-06  7.9141703472824538e-07  3.8193612901861670e-07  1.7470584508986567e-07  7.6240672889053354e-08  3.2411863557851299e-08  1.6634737490650471e-08  1.3352007502082943e-08  7.1680546705340408e-09  3.2018978965445932e-09  1.3019116356217946e-09  5.0068665057493325e-10  1.8536307569983752e-10  6.6660990159609716e-11  2.3406553412687646e-11  8.0504391632831301e-12  2.7182228579389052e-12  9.0252509120095629e-13  2.9506832305108560e-13  9.5095833810726330e-14  3.0241062723907995e-14  9.4973125016674974e-15  2.9477105977545364e-15  9.0358096487743252e-16  2.6392020780965401e-16  0.0000000000000000e+00  6.0000000000000002e-05  5.3849504722759930e-05  4.9325400202865516e-05  4.4677124974923096e-05  4.0023965107141942e-05  3.5892614399086330e-05  3.2655717780693096e-05  3.0388526795464883e-05  2.8947912633101042e-05  2.8106505175880828e-05  2.7649713095375161e-05  2.7416900477470153e-05  2.7303938968782975e-05  2.7248531413739613e-05  2.7210314509949001e-05  2.7146592495044384e-05  2.6976617138443603e-05  2.6523840739097431e-05  2.5366769891848564e-05  2.1809384758929735e-05  1.6523632159220876e-05  1.1852551365716797e-05  8.0251884460064024e-06  5.0708692429795682e-06  2.9813741436763925e-06  1.6344797213335868e-06  8.3944107524506081e-07  4.0616325473884527e-07  1.8623173941218360e-07  8.1442185215169574e-08  3.4632930413510825e-08  1.7387667756901607e-08  1.3606090433028268e-08  7.2708489565265014e-09  3.2401725307906344e-09  1.3160880494729277e-09  5.0590789790141385e-10  1.8726200661086028e-10  6.7340350442398324e-11  2.3645312387480284e-11  8.1328676429406110e-12  2.7461941895935950e-12  9.1186278740675508e-13  2.9813779664853121e-13  9.6090299786096560e-14  3.0558898783745389e-14  9.5976039419742558e-15  2.9789794438698426e-15  9.1322324734247817e-16  2.6686603507384005e-16  0.0000000000000000e+00  6.0000000000000002e-05  5.4093589614195404e-05  4.9579972484928971e-05  4.4919947044292022e-05  4.0245446677071008e-05  3.6090580876107999e-05  3.2832835697897731e-05  3.0549737741223432e-05  2.9098341090121589e-05  2.8250305490144302e-05  2.7789762377952385e-05  2.7554972737944749e-05  2.7441033088169629e-05  2.7385172785645434e-05  2.7346772682976520e-05  2.7283017342144145e-05  2.7113120327535451e-05  2.6660836741782313e-05  2.5505864068847452e-05  2.2135734114650651e-05  1.7044787914080028e-05  1.2320493662049424e-05  8.3816602432310050e-06  5.3166021920375350e-06  3.1365821266362187e-06  1.7249454067316715e-06  8.8844718155669820e-07  4.3101444425201831e-07  1.9811097131361431e-07  8.6827204956792971e-08  3.6944585135846503e-08  1.8209932458023127e-08  1.3891508033961167e-08  7.3817726327998568e-09  3.2803812340161266e-09  1.3307395264404136e-09  5.1125604164978990e-10  1.8919808205393439e-10  6.8031401309327044e-11  2.3887916385410382e-11  8.2165857721185836e-12  2.7745995963830640e-12  9.2134577533567851e-13  3.0125541229792226e-13  9.7100525703448169e-14  3.0881828853116695e-14  9.6995211822875926e-15  3.0107608404112966e-15  9.2302491468246304e-16  2.6985432909839544e-16  0.0000000000000000e+00  6.0000000000000002e-05  5.4331485418215639e-05  4.9833620106107395e-05  4.5163352226376220e-05  4.0467914631001921e-05  3.6289572762807171e-05  3.3010906321619592e-05  3.0711810324548731e-05  2.9249555274905386e-05  2.8394838584784013e-05  2.7930511599491492e-05  2.7693726326392057e-05  2.7578798755847447e-05  2.7522480932064313e-05  2.7483895628240250e-05  2.7420107315942470e-05  2.7250298470569151e-05  2.6798587724283327e-05  2.5647435844946658e-05  2.2443180230903747e-05  1.7531693369821481e-05  1.2773983428659329e-05  8.7334035311505308e-06  5.5618102890929409e-06  3.2927531266444579e-06  1.8165969285779164e-06  9.3839159377242807e-07  4.5647697350542414e-07  2.1034212594502396e-07  9.2397270226121576e-08  3.9348595963801585e-08  1.9098541364145513e-08  1.4208509368210743e-08  7.5008226990313949e-09  3.3225093232916633e-09  1.3458592886433711e-09  5.1672829098495618e-10  1.9117019660769988e-10  6.8733718165025110e-11  2.4134206807577398e-11  8.3015357967336554e-12  2.8034185278570012e-12  9.3096689520810136e-13  3.0441872326764262e-13  9.8125690171678360e-14  3.1209581678167028e-14  9.8029759994095192e-15  3.0430264939603609e-15  9.3297699047988221e-16  2.7288241203066254e-16  0.0000000000000000e+00  6.0000000000000002e-05  5.4563309931938050e-05  5.0086383466376607e-05  4.5407359609956546e-05  4.0691379790541403e-05  3.6489596511578674e-05  3.3189933725645193e-05  3.0874747582624077e-05  2.9401558013733594e-05  2.8540107459497668e-05  2.8071964029674495e-05  2.7833164743648796e-05  2.7717239627268677e-05  2.7660459590607531e-05  2.7621687103703546e-05  2.7557866123929793e-05  2.7388154913660858e-05  2.6937095286010768e-05  2.5791286867492422e-05  2.2734429308906255e-05  1.7987126564381292e-05  1.3212393168792960e-05  9.0797456225580475e-06  5.8060685410038780e-06  3.4496651050020288e-06  1.9093361135212616e-06  9.8923942790376930e-07  4.8254298800288364e-07  2.2292637166576585e-07  9.8155224284448764e-08  4.1847247892152930e-08  2.0051577727093440e-08  1.4557293765874373e-08  7.6279729197926439e-09  3.3665375856138645e-09  1.3614404051003931e-09  5.2232215292977630e-10  1.9317743082038928e-10  6.9446960280984161e-11  2.4384058610415478e-11  8.3876725741796786e-12  2.8326349886505972e-12  9.4072058554703747e-13  3.0762583082900797e-13  9.9165156038035234e-14  3.1541946881427586e-14  9.9078999723233831e-15  3.0757544615214456e-15  9.4307251651960692e-16  2.7594830539608379e-16  0.0000000000000000e+00  6.0000000000000002e-05  5.4789249122921131e-05  5.0338312541940778e-05  4.5651991143802164e-05  4.0915853941572745e-05  3.6690659174245755e-05  3.3369922561627575e-05  3.1038553101375881e-05  2.9554352596184890e-05  2.8686115470187078e-05  2.8214123199609329e-05  2.7973291683566414e-05  2.7856359508378873e-05  2.7799112626849923e-05  2.7760150986637501e-05  2.7696297589637202e-05  2.7526693085994372e-05  2.7076360988628556e-05  2.5937235727258028e-05  2.3011809894732595e-05  1.8413981103805905e-05  1.3635423854570910e-05  9.4201490756409321e-06  6.0490144909389308e-06  3.6071275391883825e-06  2.0030814001690811e-06  1.0409646743497080e-06  5.0920933393361211e-07  2.3586730861526963e-07  1.0410512113809859e-07  4.4443329955021838e-08  2.1068000803136921e-08  1.4938015211514122e-08  7.7631732184465830e-09  3.4124420608874626e-09  1.3774756058696818e-09  5.2803533356921967e-10  1.9521900757124403e-10  7.0170853179033521e-11  2.4637373564827008e-11  8.4749610879165863e-12  2.8622366479772581e-12  9.5060257161415516e-13  3.1087527747854117e-13  1.0021843446367791e-13  3.1878763076781171e-14  1.0014240610505377e-14  3.1089279070228628e-15  9.5330615734719370e-16  2.7905058965422724e-16  0.0000000000000000e+00  6.0000000000000002e-05  5.5009543225211654e-05  5.0589466656167470e-05  4.5897271619415617e-05  4.1141349833830210e-05  3.6892768364513506e-05  3.3550877991389657e-05  3.1203230940707597e-05  2.9707942710870994e-05  2.8832866282017817e-05  2.8356992871266283e-05  2.8114111014612263e-05  2.7996162344909940e-05  2.7938444027754522e-05  2.7899291268633437e-05  2.7835405647740140e-05  2.7665916495815505e-05  2.7216386214573701e-05  2.6085117719624899e-05  2.3277331040526440e-05  1.8815110449673525e-05  1.4043081946826884e-05  9.7542177468297547e-06  6.2903541367417370e-06  3.7649848706373177e-06  2.0977695466881651e-06  1.0935509582536031e-06  5.3647787043618380e-07  2.4917108989032843e-07  1.1025227210414611e-07  4.7140177782526118e-08  2.2147509600239264e-08  1.5350785986333756e-08  7.9063490616858661e-09  3.4601938793234731e-09  1.3939571356505207e-09  5.3386565900152284e-10  1.9729425697229273e-10  7.0905174437990761e-11  2.4894074822989764e-11  8.5633744444932990e-12  2.8922141222383350e-12  9.6060961452872797e-13  3.1416596099834928e-13  1.0128515602373942e-13  3.2219908312744630e-14  1.0121958242067844e-14  3.1425341022688052e-15  9.6367388265726300e-16  2.8218829153815035e-16  0.0000000000000000e+00  6.0000000000000002e-05  5.5224475386068250e-05  5.0839914265926244e-05  4.6143228638488691e-05  4.1367881174068783e-05  3.7095932224189007e-05  3.3732805629697985e-05  3.1368785572102881e-05  2.9862332391994117e-05  2.8980363830345497e-05  2.8500577011884838e-05  2.8255626764248625e-05  2.8136652213045910e-05  2.8078457895704902e-05  2.8039112050921076e-05  2.7975194339473160e-05  2.7805828726979329e-05  2.7357172069773695e-05  2.6234784218427748e-05  2.3532732929547197e-05  1.9193246910885876e-05  1.4435648110725994e-05  1.0081701151126249e-05  6.5298679659449971e-06  3.9231205617796380e-06  2.1933579405699222e-06  1.1469927442724199e-06  5.6435606176414634e-07  2.6284670024352387e-07  1.1660337322997390e-07  4.9941745997637284e-08  2.3290450676565836e-08  1.5795679100660358e-08  8.0574008490903298e-09  3.5097591480531541e-09  1.4108766405296912e-09  5.3981101249824403e-10  1.9940258821508534e-10  7.1649742271580662e-11  2.5154102541224308e-11  8.6528922595934642e-12  2.9225603970856265e-12  9.7073930923069845e-13  3.1749706527840944e-13  1.0236504745466446e-13  3.2565292386644934e-14  1.0231023512179872e-14  3.1765636241455668e-15  9.7417271214344130e-16  2.8536079376520004e-16  0.0000000000000000e+00  6.0000000000000002e-05  5.5434362441225048e-05  5.1089732739926472e-05  4.6389892565657207e-05  4.1595462613336023e-05  3.7300159392339116e-05  3.3915711495591105e-05  3.1535221826338482e-05  3.0017525974721033e-05  2.9128612288020249e-05  2.8644879772381118e-05  2.8397843105518627e-05  2.8277833311149146e-05  2.8219158442975610e-05  2.8179617539881460e-05  2.8115667808249378e-05  2.7946433435871954e-05  2.7498719321394966e-05  2.6386101780744116e-05  2.3779530454779721e-05  1.9550964884379255e-05  1.4813642468743323e-05  1.0402496987578347e-05  6.7674167881134255e-06  4.0814614560329917e-06  2.2898272654526665e-06  1.2012968145755334e-06  5.9285774297121951e-07  2.7690633246920426e-07  1.2316668275319707e-07  5.2852698268232947e-08  2.4497758242322499e-08  1.6272729222286088e-08  8.2162033219231905e-09  3.5610988826980051e-09  1.4282250826696912e-09  5.4586928498912311e-10  2.0154346706817757e-10  7.2404406350131880e-11  2.5417410355643537e-11  8.7434993577184959e-12  2.9532703617914348e-12  9.8098992174820115e-13  3.2086800461818700e-13  1.0345791294033609e-13  3.2914850661707779e-14  1.0341415371508838e-14  3.2110097093439984e-15  9.8480051046252715e-16  2.8856776275493828e-16  0.0000000000000000e+00  6.0000000000000002e-05  5.5639547465266196e-05  5.1339008114135683e-05  4.6637296467199715e-05  4.1824109728788642e-05  3.7505458976697761e-05  3.4099601970677305e-05  3.1702544849444854e-05  3.0173528057726795e-05  2.9277616037850985e-05  2.8789905468964898e-05  2.8540764345375141e-05  2.8419709952294744e-05  2.8360549986504723e-05  2.8320812042665979e-05  2.8256830295399250e-05  2.8087734348581703e-05  2.7641028363003835e-05  2.6538951072352281e-05  2.4019050477760594e-05  1.9890669975065624e-05  1.5177790102533204e-05  1.0716651923959059e-05  7.0029472056282794e-06  4.2399822690706764e-06  2.3871843895554963e-06  1.2564839278995414e-06  6.2200400318914685e-07  2.9136583066439359e-07  1.2995223301696837e-07  5.5878509451451646e-08  2.5770918379313596e-08  1.6781931915316702e-08  8.3826050053848146e-09  3.6141689804003684e-09  1.4459926786448892e-09  5.5203833651851058e-10  2.0371639797483029e-10  7.3169040439027059e-11  2.5683962546289310e-11  8.8351847246473208e-12  2.9843404340297657e-12  9.9136025807995704e-13  3.2427837886323353e-13  1.0456361904451740e-13  3.3268539090933869e-14  1.0453119457954407e-14  3.2458677354523498e-15  9.9555582238953730e-16  2.9180909083352485e-16  0.0000000000000000e+00  6.0000000000000002e-05  5.5840393801244483e-05  5.1587834815533249e-05  4.6885476036348906e-05  4.2053839000446658e-05  3.7711840526753923e-05  3.4284483763090038e-05  3.1870760065379841e-05  3.0330343471555711e-05  2.9427379649232477e-05  2.8935658567321309e-05  2.8684394914376413e-05  2.8562286557409941e-05  2.8502636942860616e-05  2.8462699962851921e-05  2.8398686135960946e-05  2.8229735258233174e-05  2.7784099200874959e-05  2.6693225680877740e-05  2.4252463569650217e-05  2.0214602953514059e-05  1.5528989277721127e-05  1.1024360907584064e-05  7.2364966643171434e-06  4.3987101179085048e-06  2.4854654012155923e-06  1.3125906102921526e-06  6.5182415744026773e-07  3.0624518480309113e-07  1.3697206917543522e-07  5.9025577540044420e-08  2.7111951583469486e-08  1.7323241072948486e-08  8.5564276988506388e-09  3.6689202314297893e-09  1.4641688578731536e-09  5.5831596675057878e-10  2.0592090989739250e-10  7.3943536507962558e-11  2.5953731756886203e-11  8.9279406635106031e-12  3.0157682573968110e-12  1.0018495584909633e-12  3.2772793724544575e-13  1.0568208257068258e-13  3.3626330209343776e-14  1.0566126793832019e-14  3.2811348033656006e-15  1.0064377401843811e-15  2.9508485008301141e-16  0.0000000000000000e+00  6.0000000000000002e-05  5.6037280321875920e-05  5.1836315349855295e-05  4.7134469505891549e-05  4.2284667783239774e-05  3.7919314008052301e-05  3.4470363876015819e-05  3.2039873144150029e-05  3.0487977251688655e-05  2.9577907858119331e-05  2.9082143668831671e-05  2.8828739357443591e-05  2.8705567648855832e-05  2.864542382331741