<?xml version="1.0"?>
<VTKFile type="UnstructuredGrid"  version="0.1"  >
<UnstructuredGrid>
<Piece  NumberOfPoints="2601" NumberOfCells="5000">
<Points>
<DataArray  type="Float64"  NumberOfComponents="3"  format="ascii">-1 0 0  -0.96 0 0  -0.92 0 0  -0.88 0 0  -0.84 0 0  -0.8 0 0  -0.76 0 0  -0.72 0 0  -0.6799999999999999 0 0  -0.64 0 0  -0.6 0 0  -0.5600000000000001 0 0  -0.52 0 0  -0.48 0 0  -0.4399999999999999 0 0  -0.4 0 0  -0.36 0 0  -0.32 0 0  -0.28 0 0  -0.24 0 0  -0.2 0 0  -0.16 0 0  -0.12 0 0  -0.07999999999999996 0 0  -0.04000000000000004 0 0  0 0 0  0.04000000000000004 0 0  0.08000000000000007 0 0  0.1200000000000001 0 0  0.1599999999999999 0 0  0.2 0 0  0.24 0 0  0.28 0 0  0.3200000000000001 0 0  0.3600000000000001 0 0  0.3999999999999999 0 0  0.4399999999999999 0 0  0.48 0 0  0.52 0 0  0.5600000000000001 0 0  0.6000000000000001 0 0  0.6399999999999999 0 0  0.6799999999999999 0 0  0.72 0 0  0.76 0 0  0.8 0 0  0.8400000000000001 0 0  0.8799999999999999 0 0  0.9199999999999999 0 0  0.96 0 0  1 0 0  -1 0.016 0  -0.96 0.016 0  -0.92 0.016 0  -0.88 0.016 0  -0.84 0.016 0  -0.8 0.016 0  -0.76 0.016 0  -0.72 0.016 0  -0.6799999999999999 0.016 0  -0.64 0.016 0  -0.6 0.016 0  -0.5600000000000001 0.016 0  -0.52 0.016 0  -0.48 0.016 0  -0.4399999999999999 0.016 0  -0.4 0.016 0  -0.36 0.016 0  -0.32 0.016 0  -0.28 0.016 0  -0.24 0.016 0  -0.2 0.016 0  -0.16 0.016 0  -0.12 0.016 0  -0.07999999999999996 0.016 0  -0.04000000000000004 0.016 0  0 0.016 0  0.04000000000000004 0.016 0  0.08000000000000007 0.016 0  0.1200000000000001 0.016 0  0.1599999999999999 0.016 0  0.2 0.016 0  0.24 0.016 0  0.28 0.016 0  0.3200000000000001 0.016 0  0.3600000000000001 0.016 0  0.3999999999999999 0.016 0  0.4399999999999999 0.016 0  0.48 0.016 0  0.52 0.016 0  0.5600000000000001 0.016 0  0.6000000000000001 0.016 0  0.6399999999999999 0.016 0  0.6799999999999999 0.016 0  0.72 0.016 0  0.76 0.016 0  0.8 0.016 0  0.8400000000000001 0.016 0  0.8799999999999999 0.016 0  0.9199999999999999 0.016 0  0.96 0.016 0  1 0.016 0  -1 0.032 0  -0.96 0.032 0  -0.92 0.032 0  -0.88 0.032 0  -0.84 0.032 0  -0.8 0.032 0  -0.76 0.032 0  -0.72 0.032 0  -0.6799999999999999 0.032 0  -0.64 0.032 0  -0.6 0.032 0  -0.5600000000000001 0.032 0  -0.52 0.032 0  -0.48 0.032 0  -0.4399999999999999 0.032 0  -0.4 0.032 0  -0.36 0.032 0  -0.32 0.032 0  -0.28 0.032 0  -0.24 0.032 0  -0.2 0.032 0  -0.16 0.032 0  -0.12 0.032 0  -0.07999999999999996 0.032 0  -0.04000000000000004 0.032 0  0 0.032 0  0.04000000000000004 0.032 0  0.08000000000000007 0.032 0  0.1200000000000001 0.032 0  0.1599999999999999 0.032 0  0.2 0.032 0  0.24 0.032 0  0.28 0.032 0  0.3200000000000001 0.032 0  0.3600000000000001 0.032 0  0.3999999999999999 0.032 0  0.4399999999999999 0.032 0  0.48 0.032 0  0.52 0.032 0  0.5600000000000001 0.032 0  0.6000000000000001 0.032 0  0.6399999999999999 0.032 0  0.6799999999999999 0.032 0  0.72 0.032 0  0.76 0.032 0  0.8 0.032 0  0.8400000000000001 0.032 0  0.8799999999999999 0.032 0  0.9199999999999999 0.032 0  0.96 0.032 0  1 0.032 0  -1 0.04800000000000001 0  -0.96 0.04800000000000001 0  -0.92 0.04800000000000001 0  -0.88 0.04800000000000001 0  -0.84 0.04800000000000001 0  -0.8 0.04800000000000001 0  -0.76 0.04800000000000001 0  -0.72 0.04800000000000001 0  -0.6799999999999999 0.04800000000000001 0  -0.64 0.04800000000000001 0  -0.6 0.04800000000000001 0  -0.5600000000000001 0.04800000000000001 0  -0.52 0.04800000000000001 0  -0.48 0.04800000000000001 0  -0.4399999999999999 0.04800000000000001 0  -0.4 0.04800000000000001 0  -0.36 0.04800000000000001 0  -0.32 0.04800000000000001 0  -0.28 0.04800000000000001 0  -0.24 0.04800000000000001 0  -0.2 0.04800000000000001 0  -0.16 0.04800000000000001 0  -0.12 0.04800000000000001 0  -0.07999999999999996 0.04800000000000001 0  -0.04000000000000004 0.04800000000000001 0  0 0.04800000000000001 0  0.04000000000000004 0.04800000000000001 0  0.08000000000000007 0.04800000000000001 0  0.1200000000000001 0.04800000000000001 0  0.1599999999999999 0.04800000000000001 0  0.2 0.04800000000000001 0  0.24 0.04800000000000001 0  0.28 0.04800000000000001 0  0.3200000000000001 0.04800000000000001 0  0.3600000000000001 0.04800000000000001 0  0.3999999999999999 0.04800000000000001 0  0.4399999999999999 0.04800000000000001 0  0.48 0.04800000000000001 0  0.52 0.04800000000000001 0  0.5600000000000001 0.04800000000000001 0  0.6000000000000001 0.04800000000000001 0  0.6399999999999999 0.04800000000000001 0  0.6799999999999999 0.04800000000000001 0  0.72 0.04800000000000001 0  0.76 0.04800000000000001 0  0.8 0.04800000000000001 0  0.8400000000000001 0.04800000000000001 0  0.8799999999999999 0.04800000000000001 0  0.9199999999999999 0.04800000000000001 0  0.96 0.04800000000000001 0  1 0.04800000000000001 0  -1 0.064 0  -0.96 0.064 0  -0.92 0.064 0  -0.88 0.064 0  -0.84 0.064 0  -0.8 0.064 0  -0.76 0.064 0  -0.72 0.064 0  -0.6799999999999999 0.064 0  -0.64 0.064 0  -0.6 0.064 0  -0.5600000000000001 0.064 0  -0.52 0.064 0  -0.48 0.064 0  -0.4399999999999999 0.064 0  -0.4 0.064 0  -0.36 0.064 0  -0.32 0.064 0  -0.28 0.064 0  -0.24 0.064 0  -0.2 0.064 0  -0.16 0.064 0  -0.12 0.064 0  -0.07999999999999996 0.064 0  -0.04000000000000004 0.064 0  0 0.064 0  0.04000000000000004 0.064 0  0.08000000000000007 0.064 0  0.1200000000000001 0.064 0  0.1599999999999999 0.064 0  0.2 0.064 0  0.24 0.064 0  0.28 0.064 0  0.3200000000000001 0.064 0  0.3600000000000001 0.064 0  0.3999999999999999 0.064 0  0.4399999999999999 0.064 0  0.48 0.064 0  0.52 0.064 0  0.5600000000000001 0.064 0  0.6000000000000001 0.064 0  0.6399999999999999 0.064 0  0.6799999999999999 0.064 0  0.72 0.064 0  0.76 0.064 0  0.8 0.064 0  0.8400000000000001 0.064 0  0.8799999999999999 0.064 0  0.9199999999999999 0.064 0  0.96 0.064 0  1 0.064 0  -1 0.08 0  -0.96 0.08 0  -0.92 0.08 0  -0.88 0.08 0  -0.84 0.08 0  -0.8 0.08 0  -0.76 0.08 0  -0.72 0.08 0  -0.6799999999999999 0.08 0  -0.64 0.08 0  -0.6 0.08 0  -0.5600000000000001 0.08 0  -0.52 0.08 0  -0.48 0.08 0  -0.4399999999999999 0.08 0  -0.4 0.08 0  -0.36 0.08 0  -0.32 0.08 0  -0.28 0.08 0  -0.24 0.08 0  -0.2 0.08 0  -0.16 0.08 0  -0.12 0.08 0  -0.07999999999999996 0.08 0  -0.04000000000000004 0.08 0  0 0.08 0  0.04000000000000004 0.08 0  0.08000000000000007 0.08 0  0.1200000000000001 0.08 0  0.1599999999999999 0.08 0  0.2 0.08 0  0.24 0.08 0  0.28 0.08 0  0.3200000000000001 0.08 0  0.3600000000000001 0.08 0  0.3999999999999999 0.08 0  0.4399999999999999 0.08 0  0.48 0.08 0  0.52 0.08 0  0.5600000000000001 0.08 0  0.6000000000000001 0.08 0  0.6399999999999999 0.08 0  0.6799999999999999 0.08 0  0.72 0.08 0  0.76 0.08 0  0.8 0.08 0  0.8400000000000001 0.08 0  0.8799999999999999 0.08 0  0.9199999999999999 0.08 0  0.96 0.08 0  1 0.08 0  -1 0.09600000000000002 0  -0.96 0.09600000000000002 0  -0.92 0.09600000000000002 0  -0.88 0.09600000000000002 0  -0.84 0.09600000000000002 0  -0.8 0.09600000000000002 0  -0.76 0.09600000000000002 0  -0.72 0.09600000000000002 0  -0.6799999999999999 0.09600000000000002 0  -0.64 0.09600000000000002 0  -0.6 0.09600000000000002 0  -0.5600000000000001 0.09600000000000002 0  -0.52 0.09600000000000002 0  -0.48 0.09600000000000002 0  -0.4399999999999999 0.09600000000000002 0  -0.4 0.09600000000000002 0  -0.36 0.09600000000000002 0  -0.32 0.09600000000000002 0  -0.28 0.09600000000000002 0  -0.24 0.09600000000000002 0  -0.2 0.09600000000000002 0  -0.16 0.09600000000000002 0  -0.12 0.09600000000000002 0  -0.07999999999999996 0.09600000000000002 0  -0.04000000000000004 0.09600000000000002 0  0 0.09600000000000002 0  0.04000000000000004 0.09600000000000002 0  0.08000000000000007 0.09600000000000002 0  0.1200000000000001 0.09600000000000002 0  0.1599999999999999 0.09600000000000002 0  0.2 0.09600000000000002 0  0.24 0.09600000000000002 0  0.28 0.09600000000000002 0  0.3200000000000001 0.09600000000000002 0  0.3600000000000001 0.09600000000000002 0  0.3999999999999999 0.09600000000000002 0  0.4399999999999999 0.09600000000000002 0  0.48 0.09600000000000002 0  0.52 0.09600000000000002 0  0.5600000000000001 0.09600000000000002 0  0.6000000000000001 0.09600000000000002 0  0.6399999999999999 0.09600000000000002 0  0.6799999999999999 0.09600000000000002 0  0.72 0.09600000000000002 0  0.76 0.09600000000000002 0  0.8 0.09600000000000002 0  0.8400000000000001 0.09600000000000002 0  0.8799999999999999 0.09600000000000002 0  0.9199999999999999 0.09600000000000002 0  0.96 0.09600000000000002 0  1 0.09600000000000002 0  -1 0.112 0  -0.96 0.112 0  -0.92 0.112 0  -0.88 0.112 0  -0.84 0.112 0  -0.8 0.112 0  -0.76 0.112 0  -0.72 0.112 0  -0.6799999999999999 0.112 0  -0.64 0.112 0  -0.6 0.112 0  -0.5600000000000001 0.112 0  -0.52 0.112 0  -0.48 0.112 0  -0.4399999999999999 0.112 0  -0.4 0.112 0  -0.36 0.112 0  -0.32 0.112 0  -0.28 0.112 0  -0.24 0.112 0  -0.2 0.112 0  -0.16 0.112 0  -0.12 0.112 0  -0.07999999999999996 0.112 0  -0.04000000000000004 0.112 0  0 0.112 0  0.04000000000000004 0.112 0  0.08000000000000007 0.112 0  0.1200000000000001 0.112 0  0.1599999999999999 0.112 0  0.2 0.112 0  0.24 0.112 0  0.28 0.112 0  0.3200000000000001 0.112 0  0.3600000000000001 0.112 0  0.3999999999999999 0.112 0  0.4399999999999999 0.112 0  0.48 0.112 0  0.52 0.112 0  0.5600000000000001 0.112 0  0.6000000000000001 0.112 0  0.6399999999999999 0.112 0  0.6799999999999999 0.112 0  0.72 0.112 0  0.76 0.112 0  0.8 0.112 0  0.8400000000000001 0.112 0  0.8799999999999999 0.112 0  0.9199999999999999 0.112 0  0.96 0.112 0  1 0.112 0  -1 0.128 0  -0.96 0.128 0  -0.92 0.128 0  -0.88 0.128 0  -0.84 0.128 0  -0.8 0.128 0  -0.76 0.128 0  -0.72 0.128 0  -0.6799999999999999 0.128 0  -0.64 0.128 0  -0.6 0.128 0  -0.5600000000000001 0.128 0  -0.52 0.128 0  -0.48 0.128 0  -0.4399999999999999 0.128 0  -0.4 0.128 0  -0.36 0.128 0  -0.32 0.128 0  -0.28 0.128 0  -0.24 0.128 0  -0.2 0.128 0  -0.16 0.128 0  -0.12 0.128 0  -0.07999999999999996 0.128 0  -0.04000000000000004 0.128 0  0 0.128 0  0.04000000000000004 0.128 0  0.08000000000000007 0.128 0  0.1200000000000001 0.128 0  0.1599
[...]
<PointData  Scalars="f_100"> 
<DataArray  type="Float64"  Name="f_100"  format="ascii">6.0000000000000002e-05  5.4197163634842394e-05  5.2767992399048231e-05  5.2058145504929362e-05  5.1418852676275312e-05  5.0612507184043782e-05  4.9537892278122852e-05  4.8155273960971221e-05  4.6467883490024128e-05  4.4516739731698326e-05  4.2374786616827384e-05  4.0136751734815459e-05  3.7905546279856668e-05  3.5777850184690382e-05  3.3831723803264166e-05  3.2118047952352429e-05  3.0654627098755676e-05  2.9406363221070326e-05  2.8166406404161308e-05  2.2941089189132909e-05  1.6838916070555482e-05  1.4044020205202967e-05  1.2087156306951055e-05  1.0540184676462791e-05  9.2201846380743845e-06  8.0326342313881623e-06  6.9307143670933215e-06  5.8996789602593195e-06  4.9540382283206440e-06  4.1594490723450292e-06  3.7381789270673179e-06  4.6103060542267599e-06  5.9920562174327208e-06  5.4217002059084902e-06  4.3403934659871766e-06  3.2695408087121633e-06  2.3685090575165224e-06  1.6634610924190972e-06  1.1364676257877233e-06  7.5653116603220955e-07  4.9121449025514665e-07  3.1134477237758292e-07  1.9277672697488952e-07  1.1668478060502879e-07  6.9090540515731156e-08  4.0045895006964275e-08  2.2734177068258736e-08  1.2637066573720420e-08  6.8186673882492637e-09  3.2574403018519469e-09  0.0000000000000000e+00  6.0000000000000002e-05  5.4471420371602762e-05  5.3035222840335150e-05  5.2321638193660912e-05  5.1679951993590036e-05  5.0870861101776038e-05  4.9792399118914608e-05  4.8404445080153830e-05  4.6710061273616896e-05  4.4750297965807176e-05  4.2598328020930772e-05  4.0349279113028144e-05  3.8106577345585067e-05  3.5967456146696034e-05  3.4010489011862201e-05  3.2286965544195536e-05  3.0814965402592219e-05  2.9559691440396397e-05  2.8300606257305226e-05  2.3537946619893720e-05  1.7674301425777734e-05  1.4743240806683531e-05  1.2683899746194637e-05  1.1059600119406258e-05  9.6764035923288585e-06  8.4336535701062147e-06  7.2811057904991037e-06  6.2022682196799183e-06  5.2109204511671934e-06  4.3722250197750272e-06  3.9068091803720341e-06  4.6654409525195299e-06  6.0237260909725937e-06  5.4551448582470613e-06  4.3682080804295800e-06  3.2910224398513144e-06  2.3843976099317961e-06  1.6748327536653664e-06  1.1443753523353956e-06  7.6188411814457100e-07  4.9474584228216866e-07  3.1361708503813627e-07  1.9420399995044292e-07  1.1756052306289961e-07  6.9615818752335849e-08  4.0354112244292886e-08  2.2911227905392772e-08  1.2736731012438434e-08  6.8738261066123520e-09  3.2882161319842929e-09  0.0000000000000000e+00  6.0000000000000002e-05  5.4741626515357046e-05  5.3301629192167013e-05  5.2585769534635313e-05  5.1942146397557839e-05  5.1130446870815647e-05  5.0048169933791247e-05  4.8654874780040938e-05  4.6953475425799982e-05  4.4985059933118700e-05  4.2823032453514187e-05  4.0562922336390981e-05  3.8308672398486784e-05  3.6158071751459641e-05  3.4190209584414869e-05  3.2456788178207619e-05  3.0976178063575152e-05  2.9714001320551348e-05  2.8439538643677662e-05  2.4083838488180963e-05  1.8502921245157355e-05  1.5440867538610697e-05  1.3285550972600107e-05  1.1587084312823985e-05  1.0142273357513526e-05  8.8450109355429519e-06  7.6419144398161307e-06  6.5148915060163922e-06  5.4770649899179783e-06  4.5930616480677761e-06  4.0808707907854133e-06  4.7356824705555829e-06  6.0612793300699227e-06  5.4906514964751364e-06  4.3967676600826518e-06  3.3128192388695530e-06  2.4004503131361646e-06  1.6863049627089037e-06  1.1523498690528323e-06  7.6728249456009172e-07  4.9830793648188789e-07  3.1590985531397106e-07  1.9564459815844103e-07  1.1844474870104028e-07  7.0146374390245620e-08  4.0665538740943890e-08  2.3090187711522598e-08  1.2837507306259551e-08  6.9296127064079420e-09  3.3191955418794572e-09  0.0000000000000000e+00  6.0000000000000002e-05  5.5006985697706754e-05  5.3567171192790166e-05  5.2850533485577644e-05  5.2205439518254039e-05  5.1391271490304206e-05  5.0305213040163595e-05  4.8906571898328935e-05  4.7198134841531811e-05  4.5221034203814659e-05  4.3048907824154350e-05  4.0777688395343787e-05  3.8511837365128609e-05  3.6349701846987612e-05  3.4370889391359067e-05  3.2627518891873267e-05  3.1138267114498285e-05  2.9869284101875090e-05  2.8582904682806752e-05  2.4585716895173815e-05  1.9303930128062154e-05  1.6133158301316784e-05  1.3890497748950956e-05  1.2121821160533349e-05  1.0617424581172705e-05  9.2666142401076980e-06  8.0132235152149419e-06  6.8377396591362611e-06  5.7527284352531416e-06  4.8222793257076052e-06  4.2611052842355377e-06  4.8193210888190775e-06  6.1048098219246749e-06  5.5282533360422341e-06  4.4260835232692357e-06  3.3349338430365114e-06  2.4166671088165518e-06  1.6978769021412427e-06  1.1603902334895937e-06  7.7272544089495096e-07  5.0190007185446794e-07  3.1822254266380136e-07  1.9709812419640040e-07  1.1933717697393668e-07  7.0682016430942109e-08  4.0980048694216526e-08  2.3270976061913452e-08  1.2939345135525834e-08  6.9859951017451523e-09  3.3503510432030102e-09  0.0000000000000000e+00  6.0000000000000002e-05  5.5266939432713230e-05  5.3831824742858426e-05  5.3115928001154859e-05  5.2469836088181458e-05  5.1653342095593472e-05  5.0563536536827096e-05  4.9159544914488716e-05  4.7444048017897738e-05  4.5458228977913403e-05  4.3275961753456817e-05  4.0993584111336046e-05  3.8716078142772973e-05  3.6542351390365864e-05  3.4552532530560641e-05  3.2799161036408711e-05  3.1301234955838535e-05  3.0025534194807267e-05  2.8730403704551719e-05  2.5049751529943681e-05  2.0067275037789194e-05  1.6817431472660567e-05  1.4497356340850604e-05  1.2663099782496023e-05  1.1101550004086125e-05  9.6984132662950146e-06  8.3951475070142564e-06  7.1710285227660798e-06  6.0381855314201988e-06  5.0601990522660960e-06  4.4481384721935924e-06  4.9151236227350688e-06  6.1543903078247132e-06  5.5679753506075094e-06  4.4561639223861191e-06  3.3573681875310547e-06  2.4330479594161213e-06  1.7095479623674609e-06  1.1684957319919626e-06  7.7821230280565133e-07  5.0552170685969602e-07  3.2055472673560633e-07  1.9856426745071292e-07  1.2023758773848084e-07  7.1222594533731406e-08  4.1297542836726187e-08  2.3453529368741647e-08  1.3042204648703280e-08  7.0429478807491345e-09  3.3816629957635174e-09  0.0000000000000000e+00  6.0000000000000002e-05  5.5521123787779830e-05  5.4095579803782327e-05  5.3381954829578552e-05  5.2735341911703000e-05  5.1916665989995352e-05  5.0823148364217014e-05  4.9413802024038703e-05  4.7691223132230244e-05  4.5696652157697614e-05  4.3504201631012995e-05  4.1210616173539682e-05  3.8921400611226798e-05  3.6736025434762351e-05  3.4735143292692780e-05  3.2971718224844656e-05  3.1465084279182819e-05  3.0182748276626561e-05  2.8881741041249367e-05  2.5481340009995265e-05  2.0789175250023769e-05  1.7491545933837534e-05  1.5104901745008084e-05  1.3210286769713155e-05  1.1594390526275918e-05  1.0140393163701388e-05  8.7878299308860006e-06  7.5149991513168200e-06  6.3337318204637749e-06  5.3071515456456480e-06  4.6425160315857159e-06  5.0222067224677540e-06  6.2100723498041329e-06  5.6098344583422618e-06  4.4870141796139848e-06  3.3801235106147439e-06  2.4495928098759116e-06  1.7213176947815666e-06  1.1766658361554729e-06  7.8374258947996658e-07  5.0917243063349814e-07  3.2290608570685139e-07  2.0004278843351976e-07  1.2114581032642306e-07  7.1767991640358832e-08  4.1617943609744781e-08  2.3637797810431321e-08  1.3146054549256804e-08  7.1004510931171333e-09  3.4131181093088227e-09  0.0000000000000000e+00  6.0000000000000002e-05  5.5769333427229261e-05  5.4358438919879964e-05  5.3648619347769372e-05  5.3001963839643334e-05  5.2181250670915165e-05  5.1084056354069551e-05  4.9669351199734708e-05  4.7939668106418790e-05  4.5936311407273925e-05  4.3733634662984035e-05  4.1428791168897103e-05  3.9127810642402156e-05  3.6930729118547487e-05  3.4918726132604261e-05  3.3145194289284214e-05  3.1629818006033018e-05  3.0340924568630556e-05  2.9036633470202839e-05  2.5885162266367071e-05  2.1469415331026889e-05  1.8153749415655421e-05  1.5712048389351823e-05  1.3762817454979636e-05  1.2095731443619611e-05  1.0592573580472987e-05  9.1914441035795512e-06  7.8699195039114193e-06  6.6396863926290853e-06  5.5634831887664418e-06  4.8447296219881725e-06  5.1399457513994618e-06  6.2718870687892358e-06  5.6538396637924785e-06  4.5186367996726234e-06  3.4032003578056323e-06  2.4663015561536676e-06  1.7331857732960843e-06  1.1849001670792738e-06  7.8931594369117373e-07  5.1285193939503714e-07  3.2527637854211787e-07  2.0153350596036076e-07  1.2206171460404632e-07  7.2318117944343084e-08  4.1941191218765512e-08  2.3823742823610705e-08  1.3250870533832679e-08  7.1584892609776420e-09  3.4447082169411681e-09  0.0000000000000000e+00  6.0000000000000002e-05  5.6011491823959620e-05  5.4620416181582573e-05  5.3915930423419856e-05  5.3269709747175522e-05  5.2447103851050326e-05  5.1346268270258099e-05  4.9926200241957004e-05  4.8189390659848033e-05  4.6177214201554723e-05  4.3964267911173424e-05  4.1648115606719644e-05  3.9335314108032731e-05  3.7126467656194555e-05  3.5103285645647183e-05  3.3319593245729048e-05  3.1795439238899778e-05  3.0500062264845074e-05  2.9194812814732203e-05  2.6265254248673489e-05  2.2109731650358501e-05  1.8802658996552217e-05  1.6317850164126083e-05  1.4320196683235299e-05  1.2605404055298277e-05  1.1055010835264015e-05  9.6061955934385293e-06  8.2360869847243826e-06  6.9563947212702906e-06  5.8295603019194169e-06  5.0552364347167738e-06  5.2679090652585976e-06  6.3398462682389916e-06  5.6999921658568102e-06  4.5510315654795589e-06  3.4265985859752265e-06  2.4831740195426238e-06  1.7451519628003448e-06  1.1931984660430589e-06  7.9493211724072066e-07  5.1656001710960339e-07  3.2766543045983668e-07  2.0303628665332575e-07  1.2298520365759155e-07  7.2872905959781628e-08  4.2267240409987089e-08  2.4011335054568622e-08  1.3356634017208230e-08  7.2170505717084657e-09  3.4764292725856119e-09  0.0000000000000000e+00  6.0000000000000002e-05  5.6247626629734408e-05  5.4881536492369774e-05  5.4183900295237990e-05  5.3538588513512853e-05  5.2714233475238163e-05  5.1609791842269875e-05  5.0184356820174996e-05  4.8440398352972289e-05  4.6419367866544847e-05  4.4196108325116538e-05  4.1868595938829676e-05  3.9543916885904580e-05  3.7323246330675443e-05  3.5288826548110688e-05  3.3494919265149809e-05  3.1961951222234336e-05  3.0660161087013541e-05  2.9356028124273897e-05  2.6625086940728410e-05  2.2712858151826498e-05  1.9437272020786400e-05  1.6921507409125888e-05  1.4882004293932698e-05  1.3123290117265304e-05  1.1527801763489699e-05  1.0032325630434946e-05  8.6138314989131059e-06  7.2842315904732747e-06  6.1057725741511156e-06  5.2744741162467803e-06  5.4058105542005739e-06  6.4139436896897246e-06  5.7482854415636544e-06  4.5841956215069951e-06  3.4503173680784045e-06  2.5002099259694014e-06  1.7572160933711947e-06  1.2015605704727566e-06  8.0059095082509490e-07  5.2029651964081165e-07  3.3007312102777965e-07  2.0455103634780005e-07  1.2391620780863924e-07  7.3432306489055704e-08  4.2596057835871834e-08  2.4200552685971011e-08  1.3463331091311982e-08  7.2761262190240686e-09  3.5082805332232270e-09  0.0000000000000000e+00  6.0000000000000002e-05  5.6477849358318664e-05  5.5141835037364673e-05  5.4452544464839628e-05  5.3808610002247977e-05  5.2982647733452949e-05  5.1874634792535958e-05  5.0443828507039807e-05  4.8692698623179348e-05  4.6662779612481419e-05  4.4429162768441321e-05  4.2090238576059711e-05  3.9753624864890601e-05  3.7521070487111769e-05  3.5475353661053739e-05  3.3671176649708726e-05  3.2129357311255897e-05  3.0821220944001222e-05  2.9520046775099499e-05  2.6967643112484834e-05  2.3281969126817092e-05  2.0056969791577490e-05  1.7522375810004972e-05  1.5447902809914663e-05  1.3649327797643344e-05  1.2011088512980185e-05  1.0470115098930786e-05  9.0035188527592630e-06  7.6236041307357732e-06  6.3925361202414297e-06  5.5028723976813457e-06  5.5534753383214867e-06  6.4941562375964238e-06  5.7987053141812689e-06  4.6181235487588587e-06  3.4743551990571683e-06  2.5174088895812435e-06  1.7693780392652753e-06  1.2099863942628515e-06  8.0629235753543910e-07  5.2406136176358380e-07  3.3249937441177760e-07  2.0607769305732219e-07  1.2485467971738419e-07  7.3996285325394521e-08  4.2927619902006246e-08  2.4391380070016609e-08  1.3570951675285485e-08  7.3357098648788290e-09  3.5402638934376349e-09  0.0000000000000000e+00  6.0000000000000002e-05  5.6702338672901213e-05  5.5401356878721921e-05  5.4721881595382552e-05  5.4079785041437383e-05  5.3252355070380593e-05  5.2140804858619882e-05  5.0704622806383825e-05  4.8946298814304411e-05  4.6907456561099518e-05  4.4663438040529843e-05  4.2313049901773414e-05  3.9964443949022555e-05  3.7719945527479510e-05  3.5662871896951263e-05  3.3848369813234125e-05  3.2297660947136200e-05  3.0983241676834820e-05  2.9686654764973601e-05  2.7295488047989726e-05  2.3820360561661249e-05  2.0661504922369104e-05  1.8119974961305832e-05  1.6017645980274676e-05  1.4183518407780377e-05  1.2505063899519507e-05  1.0919888912394366e-05  9.4055544082792854e-06  7.9749549767784995e-06  6.6902964195562228e-06  5.7408623612782881e-06  5.7108149553081004e-06  6.5804450728191102e-06  5.8512300129952112e-06  4.6528074345720067e-06  3.4987099033249338e-06  2.5347704000424127e-06  1.7816377018913221e-06  1.2184759116888960e-06  8.1203630934023081e-07  5.2785450652247850e-07  3.3494415138798824e-07  2.0761622121363516e-07  1.2580059037569638e-07  7.4564820556123705e-08  4.3261911007163902e-08  2.4583806611803389e-08  1.3679488821449859e-08  7.3957971998130013e-09  3.5723833454709432e-09  0.0000000000000000e+00  6.0000000000000002e-05  5.6921326684302358e-05  5.5660156623786625e-05  5.4991933413246573e-05  5.4352125402734459e-05  5.3523364191939182e-05  5.2408309811098139e-05  5.0966747176182117e-05  4.9201206200915330e-05  4.7153405768070640e-05  4.4898940894325759e-05  4.2537036282952984e-05  4.0176380060788948e-05  3.7919876906197206e-05  3.5851386248668398e-05  3.4026503265203968e-05  3.2466865637323294e-05  3.1146222873379436e-05  2.9855656417583925e-05  2.7610832704368483e-05  2.4331274345687005e-05  2.1250974441912534e-05  1.8713995495003012e-05  1.6591087434672472e-05  1.4725933508598642e-05  1.3009977108481039e-05  1.1382020660779681e-05  9.8203869442479266e-06  8.3387655579273952e-06  6.9995312741865330e-06  5.9888840062722975e-06  5.8778094134502573e-06  6.6727565157977481e-06  5.9058302309670372e-06  4.6882369398549981e-06  3.5233786441312635e-06  2.5522938130510566e-06  1.7939949961003647e-06  1.2270291442798376e-06  8.1782282601760572e-07  5.3167595651261127e-07  3.3740744279934810e-07  2.0916660695021412e-07  1.2675392582781403e-07  7.5137900356839736e-08  4.3598922104543017e-08  2.4777825856960881e-08  1.3788938148480877e-08  7.4563855835058296e-09  3.6046445426495423e-09  0.0000000000000000e+00  6.0000000000000002e-05  5.7135087762929845e-05  5.5918298127847268e-05  5.5262724609973620e-05  5.4625643779039551e-05  5.3795684069062845e-05  5.2677157467823825e-05  5.1230209047346717e-05  4.9457428008292238e-05  4.7400634241475210e-05  4.5135678050981858e-05  4.2762204079298140e-05  4.0389439143810978e-05  3.8120870126454674e-05  3.6040901780360963e-05  3.4205581597625171e-05  3.2636974940039030e-05  3.1310163739134166e-05  3.0026873665069608e-05  2.7915589003378856e-05  2.4817807536026658e-05  2.1825783995008770e-05  1.9304304242836938e-05  1.7168189043277393e-05  1.5276722165838127e-05  1.3526139621266882e-05  1.1856937468834530e-05  1.0248512696763703e-05  8.7155595278258972e-06  7.3207538578308767e-06  6.2473925922853162e-06  6.0544942227920662e-06  6.7710227280840921e-06  5.9624691855130949e-06  4.7243993658898599e-06  3.5483579350217261e-06  2.5699783436639987e-06  1.8064498392464858e-06  1.2356461501315101e-06  8.2365196609927076e-07  5.3552574673634311e-07  3.3988926419441130e-07  2.1072885423945304e-07  1.2771468448591974e-07  7.5715521186706586e-08  4.3938649525280313e-08  2.4973434745998722e-08  1.3899297378352531e-08  7.5174737506691131e-09  3.6370544478917471e-09  0.0000000000000000e+00  6.0000000000000002e-05  5.7343929448304728e-05  5.6175854205235493e-05  5.5534282742369442e-05  5.4900353760269240e-05  5.4069323939023853e-05  5.2947355705147797e-05  5.1495015839072500e-05  4.9714971428862432e-05  4.7649148957017332e-05  4.5373656211917644e-05  4.2988559650701442e-05  4.0603627165019249e-05  3.8322930737161743e-05  3.6231423619968632e-05  3.4385609474302343e-05  3.2807992452184520e-05  3.1475063012817084e-05  3.0200145038280084e-05  2.8211417622249792e-05  2.5282871806094590e-05  2.2386608403402828e-05  1.9890947268544232e-05  1.7749028770107376e-05  1.5836118222688829e-05  1.4053931294452167e-05  1.2345125028391982e-05  1.0690479563185162e-05  9.1059063372308317e-06  7.6545158912253466e-06  6.5168641105397343e-06  6.2409510464308473e-06  6.8751621588184989e-06  6.0211026868375246e-06  4.7612797224176037e-06  3.5736436535391710e-06  2.5878230620801882e-06  1.8190021425652283e-06  1.2443270152343443e-06  8.2952381946611118e-07  5.3940393875112644e-07  3.4238965143391347e-07  2.1230298172797151e-07  1.2868287493188983e-07  7.6297686311379104e-08  4.4281094016065404e-08  2.5170633004675244e-08  1.4010565957897013e-08  7.5790615701570947e-09  3.6696210521885668e-09  0.0000000000000000e+00  6.0000000000000002e-05  5.7548185107740902e-05  5.6432906331404273e-05  5.5806638129195773e-05  5.5176269806955682e-05  5.4344293304532104e-05  5.3218912466575149e-05  5.1761174971329405e-05  4.9973843635718031e-05  4.7898956870565511e-05  4.5612882068755334e-05  4.3216109363398302e-05  4.0818950116430113e-05  3.8526064330416032e-05  3.6422956953024687e-05  3.4566591622077623e-05  3.2979921800043669e-05  3.1640918917326680e-05  3.0375324463249332e-05  2.8499768972013970e-05  2.5729182083607405e-05  2.2934352650932576e-05  2.0474150875564552e-05  1.8333807924055276e-05  1.6404447512109168e-05  1.4593806546270097e-05  1.2847132780728872e-05  1.1146891458631751e-05  9.5104249514092076e-06  8.0014109613927205e-06  6.7978001426883619e-06  6.4373009931938002e-06  6.9850797540263549e-06  6.0816792176201501e-06  4.7988607983905188e-06  3.5992310572575561e-06  2.6058268915858926e-06  1.8316518044943179e-06  1.2530718464635615e-06  8.3543850129967569e-07  5.4331061587483185e-07  3.4490865708895644e-07  2.1388902014253260e-07  1.2965851411615545e-07  7.6884404593376198e-08  4.4626259951433270e-08  2.5369422645280981e-08  1.4122744749326250e-08  7.6411498473997025e-09  3.7023531505715701e-09  0.0000000000000000e+00  6.0000000000000002e-05  5.7748208052527270e-05  5.6689544325130670e-05  5.6079823743290901e-05  5.5453407221476177e-05  5.4620601930822293e-05  5.3491835769255547e-05  5.2028693874992081e-05  5.0234051793733867e-05  4.8150064928499532e-05  4.5853362311519575e-05  4.3444859595036576e-05  4.1035414016601427e-05  3.8730276539404166e-05  3.6615507017552841e-05  3.4748532823695389e-05  3.3152766632297938e-05  3.1807729138330295e-05  3.0552279937546005e-05  2.8781918174479448e-05  2.6159261788383629e-05  2.3470116000027947e-05  2.1054320888026690e-05  1.8922857785984952e-05  1.6982134963569876e-05  1.5146300620209648e-05  1.3363579232066385e-05  1.1618412816914009e-05  9.9297877120651678e-06  8.3620779929461576e-06  7.0907323026689064e-06  6.6436998450775295e-06  7.1006669334221331e-06  6.1441400273841775e-06  4.8371232364903963e-06  3.6251148021945748e-06  2.6239886084079357e-06  1.8443987056250882e-06  1.2618807659417710e-06  8.4139614714616443e-07  5.4724587925656248e-07  3.4744634748625423e-07  2.1548701016197566e-07  1.3064162588066460e-07  7.7475689500601801e-08  4.4974154688455574e-08  2.5569807558292748e-08  1.4235835776910514e-08  7.7037401620807476e-09  3.7352601652435054e-09  0.0000000000000000e+00  6.0000000000000002e-05  5.7944366867489282e-05  5.6945866004685508e-05  5.6353875098279892e-05  5.5731782116786502e-05  5.4898259840914642e-05  5.3766133708640642e-05  5.2297580000014654e-05  5.0495603068713433e-05  4.8402480076260262e-05  4.6095103635417771e-05  4.3674816738866163e-05  4.1253024911832227e-05  3.893557303666485