<?xml version="1.0"?>
<VTKFile type="UnstructuredGrid"  version="0.1"  >
<UnstructuredGrid>
<Piece  NumberOfPoints="2601" NumberOfCells="5000">
<Points>
<DataArray  type="Float64"  NumberOfComponents="3"  format="ascii">-1 0 0  -0.96 0 0  -0.92 0 0  -0.88 0 0  -0.84 0 0  -0.8 0 0  -0.76 0 0  -0.72 0 0  -0.6799999999999999 0 0  -0.64 0 0  -0.6 0 0  -0.5600000000000001 0 0  -0.52 0 0  -0.48 0 0  -0.4399999999999999 0 0  -0.4 0 0  -0.36 0 0  -0.32 0 0  -0.28 0 0  -0.24 0 0  -0.2 0 0  -0.16 0 0  -0.12 0 0  -0.07999999999999996 0 0  -0.04000000000000004 0 0  0 0 0  0.04000000000000004 0 0  0.08000000000000007 0 0  0.1200000000000001 0 0  0.1599999999999999 0 0  0.2 0 0  0.24 0 0  0.28 0 0  0.3200000000000001 0 0  0.3600000000000001 0 0  0.3999999999999999 0 0  0.4399999999999999 0 0  0.48 0 0  0.52 0 0  0.5600000000000001 0 0  0.6000000000000001 0 0  0.6399999999999999 0 0  0.6799999999999999 0 0  0.72 0 0  0.76 0 0  0.8 0 0  0.8400000000000001 0 0  0.8799999999999999 0 0  0.9199999999999999 0 0  0.96 0 0  1 0 0  -1 0.016 0  -0.96 0.016 0  -0.92 0.016 0  -0.88 0.016 0  -0.84 0.016 0  -0.8 0.016 0  -0.76 0.016 0  -0.72 0.016 0  -0.6799999999999999 0.016 0  -0.64 0.016 0  -0.6 0.016 0  -0.5600000000000001 0.016 0  -0.52 0.016 0  -0.48 0.016 0  -0.4399999999999999 0.016 0  -0.4 0.016 0  -0.36 0.016 0  -0.32 0.016 0  -0.28 0.016 0  -0.24 0.016 0  -0.2 0.016 0  -0.16 0.016 0  -0.12 0.016 0  -0.07999999999999996 0.016 0  -0.04000000000000004 0.016 0  0 0.016 0  0.04000000000000004 0.016 0  0.08000000000000007 0.016 0  0.1200000000000001 0.016 0  0.1599999999999999 0.016 0  0.2 0.016 0  0.24 0.016 0  0.28 0.016 0  0.3200000000000001 0.016 0  0.3600000000000001 0.016 0  0.3999999999999999 0.016 0  0.4399999999999999 0.016 0  0.48 0.016 0  0.52 0.016 0  0.5600000000000001 0.016 0  0.6000000000000001 0.016 0  0.6399999999999999 0.016 0  0.6799999999999999 0.016 0  0.72 0.016 0  0.76 0.016 0  0.8 0.016 0  0.8400000000000001 0.016 0  0.8799999999999999 0.016 0  0.9199999999999999 0.016 0  0.96 0.016 0  1 0.016 0  -1 0.032 0  -0.96 0.032 0  -0.92 0.032 0  -0.88 0.032 0  -0.84 0.032 0  -0.8 0.032 0  -0.76 0.032 0  -0.72 0.032 0  -0.6799999999999999 0.032 0  -0.64 0.032 0  -0.6 0.032 0  -0.5600000000000001 0.032 0  -0.52 0.032 0  -0.48 0.032 0  -0.4399999999999999 0.032 0  -0.4 0.032 0  -0.36 0.032 0  -0.32 0.032 0  -0.28 0.032 0  -0.24 0.032 0  -0.2 0.032 0  -0.16 0.032 0  -0.12 0.032 0  -0.07999999999999996 0.032 0  -0.04000000000000004 0.032 0  0 0.032 0  0.04000000000000004 0.032 0  0.08000000000000007 0.032 0  0.1200000000000001 0.032 0  0.1599999999999999 0.032 0  0.2 0.032 0  0.24 0.032 0  0.28 0.032 0  0.3200000000000001 0.032 0  0.3600000000000001 0.032 0  0.3999999999999999 0.032 0  0.4399999999999999 0.032 0  0.48 0.032 0  0.52 0.032 0  0.5600000000000001 0.032 0  0.6000000000000001 0.032 0  0.6399999999999999 0.032 0  0.6799999999999999 0.032 0  0.72 0.032 0  0.76 0.032 0  0.8 0.032 0  0.8400000000000001 0.032 0  0.8799999999999999 0.032 0  0.9199999999999999 0.032 0  0.96 0.032 0  1 0.032 0  -1 0.04800000000000001 0  -0.96 0.04800000000000001 0  -0.92 0.04800000000000001 0  -0.88 0.04800000000000001 0  -0.84 0.04800000000000001 0  -0.8 0.04800000000000001 0  -0.76 0.04800000000000001 0  -0.72 0.04800000000000001 0  -0.6799999999999999 0.04800000000000001 0  -0.64 0.04800000000000001 0  -0.6 0.04800000000000001 0  -0.5600000000000001 0.04800000000000001 0  -0.52 0.04800000000000001 0  -0.48 0.04800000000000001 0  -0.4399999999999999 0.04800000000000001 0  -0.4 0.04800000000000001 0  -0.36 0.04800000000000001 0  -0.32 0.04800000000000001 0  -0.28 0.04800000000000001 0  -0.24 0.04800000000000001 0  -0.2 0.04800000000000001 0  -0.16 0.04800000000000001 0  -0.12 0.04800000000000001 0  -0.07999999999999996 0.04800000000000001 0  -0.04000000000000004 0.04800000000000001 0  0 0.04800000000000001 0  0.04000000000000004 0.04800000000000001 0  0.08000000000000007 0.04800000000000001 0  0.1200000000000001 0.04800000000000001 0  0.1599999999999999 0.04800000000000001 0  0.2 0.04800000000000001 0  0.24 0.04800000000000001 0  0.28 0.04800000000000001 0  0.3200000000000001 0.04800000000000001 0  0.3600000000000001 0.04800000000000001 0  0.3999999999999999 0.04800000000000001 0  0.4399999999999999 0.04800000000000001 0  0.48 0.04800000000000001 0  0.52 0.04800000000000001 0  0.5600000000000001 0.04800000000000001 0  0.6000000000000001 0.04800000000000001 0  0.6399999999999999 0.04800000000000001 0  0.6799999999999999 0.04800000000000001 0  0.72 0.04800000000000001 0  0.76 0.04800000000000001 0  0.8 0.04800000000000001 0  0.8400000000000001 0.04800000000000001 0  0.8799999999999999 0.04800000000000001 0  0.9199999999999999 0.04800000000000001 0  0.96 0.04800000000000001 0  1 0.04800000000000001 0  -1 0.064 0  -0.96 0.064 0  -0.92 0.064 0  -0.88 0.064 0  -0.84 0.064 0  -0.8 0.064 0  -0.76 0.064 0  -0.72 0.064 0  -0.6799999999999999 0.064 0  -0.64 0.064 0  -0.6 0.064 0  -0.5600000000000001 0.064 0  -0.52 0.064 0  -0.48 0.064 0  -0.4399999999999999 0.064 0  -0.4 0.064 0  -0.36 0.064 0  -0.32 0.064 0  -0.28 0.064 0  -0.24 0.064 0  -0.2 0.064 0  -0.16 0.064 0  -0.12 0.064 0  -0.07999999999999996 0.064 0  -0.04000000000000004 0.064 0  0 0.064 0  0.04000000000000004 0.064 0  0.08000000000000007 0.064 0  0.1200000000000001 0.064 0  0.1599999999999999 0.064 0  0.2 0.064 0  0.24 0.064 0  0.28 0.064 0  0.3200000000000001 0.064 0  0.3600000000000001 0.064 0  0.3999999999999999 0.064 0  0.4399999999999999 0.064 0  0.48 0.064 0  0.52 0.064 0  0.5600000000000001 0.064 0  0.6000000000000001 0.064 0  0.6399999999999999 0.064 0  0.6799999999999999 0.064 0  0.72 0.064 0  0.76 0.064 0  0.8 0.064 0  0.8400000000000001 0.064 0  0.8799999999999999 0.064 0  0.9199999999999999 0.064 0  0.96 0.064 0  1 0.064 0  -1 0.08 0  -0.96 0.08 0  -0.92 0.08 0  -0.88 0.08 0  -0.84 0.08 0  -0.8 0.08 0  -0.76 0.08 0  -0.72 0.08 0  -0.6799999999999999 0.08 0  -0.64 0.08 0  -0.6 0.08 0  -0.5600000000000001 0.08 0  -0.52 0.08 0  -0.48 0.08 0  -0.4399999999999999 0.08 0  -0.4 0.08 0  -0.36 0.08 0  -0.32 0.08 0  -0.28 0.08 0  -0.24 0.08 0  -0.2 0.08 0  -0.16 0.08 0  -0.12 0.08 0  -0.07999999999999996 0.08 0  -0.04000000000000004 0.08 0  0 0.08 0  0.04000000000000004 0.08 0  0.08000000000000007 0.08 0  0.1200000000000001 0.08 0  0.1599999999999999 0.08 0  0.2 0.08 0  0.24 0.08 0  0.28 0.08 0  0.3200000000000001 0.08 0  0.3600000000000001 0.08 0  0.3999999999999999 0.08 0  0.4399999999999999 0.08 0  0.48 0.08 0  0.52 0.08 0  0.5600000000000001 0.08 0  0.6000000000000001 0.08 0  0.6399999999999999 0.08 0  0.6799999999999999 0.08 0  0.72 0.08 0  0.76 0.08 0  0.8 0.08 0  0.8400000000000001 0.08 0  0.8799999999999999 0.08 0  0.9199999999999999 0.08 0  0.96 0.08 0  1 0.08 0  -1 0.09600000000000002 0  -0.96 0.09600000000000002 0  -0.92 0.09600000000000002 0  -0.88 0.09600000000000002 0  -0.84 0.09600000000000002 0  -0.8 0.09600000000000002 0  -0.76 0.09600000000000002 0  -0.72 0.09600000000000002 0  -0.6799999999999999 0.09600000000000002 0  -0.64 0.09600000000000002 0  -0.6 0.09600000000000002 0  -0.5600000000000001 0.09600000000000002 0  -0.52 0.09600000000000002 0  -0.48 0.09600000000000002 0  -0.4399999999999999 0.09600000000000002 0  -0.4 0.09600000000000002 0  -0.36 0.09600000000000002 0  -0.32 0.09600000000000002 0  -0.28 0.09600000000000002 0  -0.24 0.09600000000000002 0  -0.2 0.09600000000000002 0  -0.16 0.09600000000000002 0  -0.12 0.09600000000000002 0  -0.07999999999999996 0.09600000000000002 0  -0.04000000000000004 0.09600000000000002 0  0 0.09600000000000002 0  0.04000000000000004 0.09600000000000002 0  0.08000000000000007 0.09600000000000002 0  0.1200000000000001 0.09600000000000002 0  0.1599999999999999 0.09600000000000002 0  0.2 0.09600000000000002 0  0.24 0.09600000000000002 0  0.28 0.09600000000000002 0  0.3200000000000001 0.09600000000000002 0  0.3600000000000001 0.09600000000000002 0  0.3999999999999999 0.09600000000000002 0  0.4399999999999999 0.09600000000000002 0  0.48 0.09600000000000002 0  0.52 0.09600000000000002 0  0.5600000000000001 0.09600000000000002 0  0.6000000000000001 0.09600000000000002 0  0.6399999999999999 0.09600000000000002 0  0.6799999999999999 0.09600000000000002 0  0.72 0.09600000000000002 0  0.76 0.09600000000000002 0  0.8 0.09600000000000002 0  0.8400000000000001 0.09600000000000002 0  0.8799999999999999 0.09600000000000002 0  0.9199999999999999 0.09600000000000002 0  0.96 0.09600000000000002 0  1 0.09600000000000002 0  -1 0.112 0  -0.96 0.112 0  -0.92 0.112 0  -0.88 0.112 0  -0.84 0.112 0  -0.8 0.112 0  -0.76 0.112 0  -0.72 0.112 0  -0.6799999999999999 0.112 0  -0.64 0.112 0  -0.6 0.112 0  -0.5600000000000001 0.112 0  -0.52 0.112 0  -0.48 0.112 0  -0.4399999999999999 0.112 0  -0.4 0.112 0  -0.36 0.112 0  -0.32 0.112 0  -0.28 0.112 0  -0.24 0.112 0  -0.2 0.112 0  -0.16 0.112 0  -0.12 0.112 0  -0.07999999999999996 0.112 0  -0.04000000000000004 0.112 0  0 0.112 0  0.04000000000000004 0.112 0  0.08000000000000007 0.112 0  0.1200000000000001 0.112 0  0.1599999999999999 0.112 0  0.2 0.112 0  0.24 0.112 0  0.28 0.112 0  0.3200000000000001 0.112 0  0.3600000000000001 0.112 0  0.3999999999999999 0.112 0  0.4399999999999999 0.112 0  0.48 0.112 0  0.52 0.112 0  0.5600000000000001 0.112 0  0.6000000000000001 0.112 0  0.6399999999999999 0.112 0  0.6799999999999999 0.112 0  0.72 0.112 0  0.76 0.112 0  0.8 0.112 0  0.8400000000000001 0.112 0  0.8799999999999999 0.112 0  0.9199999999999999 0.112 0  0.96 0.112 0  1 0.112 0  -1 0.128 0  -0.96 0.128 0  -0.92 0.128 0  -0.88 0.128 0  -0.84 0.128 0  -0.8 0.128 0  -0.76 0.128 0  -0.72 0.128 0  -0.6799999999999999 0.128 0  -0.64 0.128 0  -0.6 0.128 0  -0.5600000000000001 0.128 0  -0.52 0.128 0  -0.48 0.128 0  -0.4399999999999999 0.128 0  -0.4 0.128 0  -0.36 0.128 0  -0.32 0.128 0  -0.28 0.128 0  -0.24 0.128 0  -0.2 0.128 0  -0.16 0.128 0  -0.12 0.128 0  -0.07999999999999996 0.128 0  -0.04000000000000004 0.128 0  0 0.128 0  0.04000000000000004 0.128 0  0.08000000000000007 0.128 0  0.1200000000000001 0.128 0  0.1599
[...]
<PointData  Scalars="f_100"> 
<DataArray  type="Float64"  Name="f_100"  format="ascii">6.0000000000000002e-05  5.4288082350061319e-05  5.3035899938781038e-05  5.2639586953909069e-05  5.2504489024742519e-05  5.2444905686778871e-05  5.2398854194562700e-05  5.2342096530602259e-05  5.2260992563393100e-05  5.2143863063345480e-05  5.1978325275945626e-05  5.1750683695901628e-05  5.1446160995269852e-05  5.1049580902244898e-05  5.0546310681741361e-05  4.9922993212897751e-05  4.9164853110977700e-05  4.8222581448161855e-05  4.6807595368600517e-05  3.8351441522532998e-05  2.8162025937229394e-05  2.3449137116292274e-05  2.0198467626808168e-05  1.7757161678351953e-05  1.5850852620421710e-05  1.4327012314570586e-05  1.3092226615836850e-05  1.2096845376705825e-05  1.1355330716952402e-05  1.1044923826204700e-05  1.1849958796038718e-05  1.6581221214491176e-05  2.3373007733210859e-05  2.4823449726144518e-05  2.4399271980255434e-05  2.3318356646025175e-05  2.2000690934726787e-05  2.0577960344779546e-05  1.9093722823392373e-05  1.7568152998544994e-05  1.6017892316310508e-05  1.4461386946974546e-05  1.2919414940374725e-05  1.1413911989878451e-05  9.9659977911574119e-06  8.5928945533134720e-06  7.3013113169812502e-06  6.0685794745338634e-06  4.7838099177540898e-06  3.0729693304301644e-06  0.0000000000000000e+00  6.0000000000000002e-05  5.4562165114599636e-05  5.3303273032518965e-05  5.2903961468130526e-05  5.2767888827578275e-05  5.2707955289336068e-05  5.2661719848882843e-05  5.2604782569696829e-05  5.2523429125084979e-05  5.2405926883011563e-05  5.2239838877013297e-05  5.2011407992316080e-05  5.1705786948126672e-05  5.1307723074824356e-05  5.0802504881443279e-05  5.0176701875298511e-05  4.9415497196683239e-05  4.8469869682793432e-05  4.7028581903786777e-05  3.9347208271082395e-05  2.9561314804045825e-05  2.4617931227497974e-05  2.1192386743685572e-05  1.8621697829745605e-05  1.6615680889305197e-05  1.5012857930966923e-05  1.3714183126926449e-05  1.2666043957125846e-05  1.1879622393860818e-05  1.1528374460436927e-05  1.2290140438949784e-05  1.6754386721888910e-05  2.3477392344913024e-05  2.4950700662862514e-05  2.4527215303119131e-05  2.3441858154218054e-05  2.2118046599267262e-05  2.0688482570208971e-05  1.9197029612670429e-05  1.7663970024619728e-05  1.6106013726555176e-05  1.4541682917547341e-05  1.2991849217735256e-05  1.1478556741855435e-05  1.0023041528480679e-05  8.6426429178330101e-06  7.3441844945741958e-06  6.1051172075481172e-06  4.8147047832816265e-06  3.0992100145763856e-06  0.0000000000000000e+00  6.0000000000000002e-05  5.4832202609958948e-05  5.3569825515768375e-05  5.3168979482320477e-05  5.3032393464154924e-05  5.2972255303542752e-05  5.2925881652444396e-05  5.2868778740245658e-05  5.2787179476354061e-05  5.2669304483515807e-05  5.2502664537412457e-05  5.2273441348852944e-05  5.1966717612787956e-05  5.1567164037939403e-05  5.1059990360030455e-05  5.0431695057173606e-05  4.9667442483212611e-05  4.8718694875895719e-05  4.7257391998557473e-05  4.0258244496568566e-05  3.0948893084321539e-05  2.5783952794620427e-05  2.2194541229550900e-05  1.9499841058435121e-05  1.7396917055280561e-05  1.5716582252920106e-05  1.4354691030262961e-05  1.3253889814225688e-05  1.2422044913060044e-05  1.2028264240032515e-05  1.2739753843890754e-05  1.6965156868734613e-05  2.3597270652355309e-05  2.5083611581741976e-05  2.4657419246659471e-05  2.3566508555800578e-05  2.2236178720000223e-05  2.0799640976018175e-05  1.9300904190205169e-05  1.7760308171799985e-05  1.6194615716467684e-05  1.4622420339146599e-05  1.3064686004877782e-05  1.1543565189972668e-05  1.0080410648284134e-05  8.6926794387752486e-06  7.3873104067223152e-06  6.1418737631201383e-06  4.8457708556450877e-06  3.1253888496990574e-06  0.0000000000000000e+00  6.0000000000000002e-05  5.5097398981126577e-05  5.3835516704337068e-05  5.3434634150538474e-05  5.3298005321754827e-05  5.3237811033647778e-05  5.3191345851355759e-05  5.3134091614307872e-05  5.3052250329701276e-05  5.2934002669039216e-05  5.2766809147162924e-05  5.2536790747385458e-05  5.2228960069242248e-05  5.1827910969822170e-05  5.1318774376514564e-05  5.0687979991697863e-05  4.9920695445745699e-05  4.8969045912503866e-05  4.7493534403488334e-05  4.1096037438437923e-05  3.2290013762578985e-05  2.6940957906455779e-05  2.3202216713312876e-05  2.0390192545033828e-05  1.8193901619568150e-05  1.6437992213411051e-05  1.5013868708544090e-05  1.3860720779698137e-05  1.2983114714270780e-05  1.2545342460537671e-05  1.3200951197106903e-05  1.7208883276097640e-05  2.3732889151545281e-05  2.5222267123374266e-05  2.4789918903669894e-05  2.3692321504878760e-05  2.2355094036214130e-05  2.0911440048881306e-05  1.9405350217759600e-05  1.7857170684730369e-05  1.6283701204875854e-05  1.4703601803132783e-05  1.3137927543368634e-05  1.1608939205983049e-05  1.0138106637854102e-05  8.7430051946457567e-06  7.4306896362704745e-06  6.1788489471572244e-06  4.8770066776466635e-06  3.1514984474202294e-06  0.0000000000000000e+00  6.0000000000000002e-05  5.5357196072379672e-05  5.4100322139541768e-05  5.3700922759601217e-05  5.3564728104788257e-05  5.3504628217054543e-05  5.3458118842185721e-05  5.3400727819964911e-05  5.3318648416980753e-05  5.3200028242778605e-05  5.3032279578142080e-05  5.2801463133664691e-05  5.2492521341709330e-05  5.2089970972085431e-05  5.1578864092621708e-05  5.0945563798287537e-05  5.0175262446067137e-05  4.9220916218304391e-05  4.7736513356587855e-05  4.1870798978811901e-05  3.3567924612328181e-05  2.8084459357334384e-05  2.4213083288751858e-05  2.1291543469973905e-05  1.9006100454662770e-05  1.7176989970301288e-05  1.5691911795153187e-05  1.4486936599329338e-05  1.3563387387677950e-05  1.3080345071312338e-05  1.3675547094895473e-05  1.7482253532384092e-05  2.3884428045404931e-05  2.5366730202044898e-05  2.4924740144283424e-05  2.3819307648566843e-05  2.2474798311127102e-05  2.1023883932494903e-05  1.9510371211551211e-05  1.7954560729655468e-05  1.6373273064220392e-05  1.4785229880119170e-05  1.3211576080986445e-05  1.1674680697267755e-05  1.0196131051885747e-05  8.7936213680337191e-06  7.4743229246286860e-06  6.2160428413832317e-06  4.9084113647348490e-06  3.1775358641523865e-06  0.0000000000000000e+00  6.0000000000000002e-05  5.5611230131142455e-05  5.4364231474485938e-05  5.3967846501266022e-05  5.3832566766361127e-05  5.3772713003835043e-05  5.3726207167204012e-05  5.3668694042421152e-05  5.3586380493550626e-05  5.3467388013601177e-05  5.3299082693421635e-05  5.3067465429718419e-05  5.2757408414469023e-05  5.2353351089192649e-05  5.1840266595640893e-05  5.1204453506042181e-05  5.0431149731808270e-05  4.9474302386397593e-05  4.7985841843951363e-05  4.2591475189073196e-05  3.4776332732435436e-05  2.9210866703125118e-05  2.5225078344091888e-05  2.2202822122954578e-05  1.9833071297177287e-05  1.7933550048660671e-05  1.6389077617807430e-05  1.5132990028165206e-05  1.4163458583283521e-05  1.3634017861062849e-05  1.4165108380580239e-05  1.7782923746845502e-05  2.4052002869414985e-05  2.5517042349307478e-05  2.5061900078212195e-05  2.3947474796880187e-05  2.2595296393486848e-05  2.1136976455609256e-05  1.9615970559773088e-05  1.8052481407614729e-05  1.6463334130366467e-05  1.4867307125866924e-05  1.3285633872930624e-05  1.1740791602736329e-05  1.0254485502578672e-05  8.8445292290037894e-06  7.5182111454237439e-06  6.2534557577049498e-06  4.9399845206872858e-06  3.2035017428577175e-06  0.0000000000000000e+00  6.0000000000000002e-05  5.5859295879007908e-05  5.4627246986011901e-05  5.4235410287242831e-05  5.4101527451640642e-05  5.4042071939789929e-05  5.3995617510462205e-05  5.3937997024933305e-05  5.3855453341722491e-05  5.3736088801559051e-05  5.3567225354992334e-05  5.3334804544098235e-05  5.3023628244932406e-05  5.2618058324527516e-05  5.2102988917285995e-05  5.1464656073203977e-05  5.0688363438949237e-05  4.9729203080864318e-05  4.8241050904066384e-05  4.3265831380275950e-05  3.5914891373954766e-05  3.0317237445452665e-05  2.6236373700763271e-05  2.3123075466904842e-05  2.0674451592329397e-05  1.8707711086712806e-05  1.7105679881766299e-05  1.5799384543259325e-05  1.4783966788477063e-05  1.4207130602884991e-05  1.4671021798561598e-05  1.8109255501640369e-05  2.4235668020683658e-05  2.5673223967620250e-05  2.5201407441837374e-05  2.4076828063299422e-05  2.2716592268495916e-05  2.1250721155184710e-05  1.9722151537047916e-05  1.8150935765311115e-05  1.6553887210672373e-05  1.4949836086119792e-05  1.3360103182792069e-05  1.1807273889425783e-05  1.0313171651460691e-05  8.8957301214098645e-06  7.5623552828066744e-06  6.2910882005950374e-06  4.9717261687012232e-06  3.2293996066587159e-06  0.0000000000000000e+00  6.0000000000000002e-05  5.6101316746193439e-05  5.4889382529323094e-05  5.4503622594630639e-05  5.4371617449974306e-05  5.4312711952128604e-05  5.4266356694471599e-05  5.4208643569568832e-05  5.4125873773623335e-05  5.4006137442461428e-05  5.3836714430159879e-05  5.3603487380353593e-05  5.3291187774441695e-05  5.2884099653663255e-05  5.2367038049275287e-05  5.1726178403334998e-05  5.0946909596378906e-05  4.9985618173314888e-05  4.8501695826814789e-05  4.3900570861276385e-05  3.6986509722655971e-05  3.1401246761583382e-05  2.7245375190850506e-05  2.4051468161426845e-05  2.1529957787968081e-05  1.9499575561704956e-05  1.7842088997817575e-05  1.6486675709323612e-05  1.5425597086166695e-05  1.4800486283459461e-05  1.5194545664042299e-05  1.8460127332976285e-05  2.4435421139736059e-05  2.5835274521016216e-05  2.5343262928126070e-05  2.4207369983286704e-05  2.2838689100634563e-05  2.1365121295749767e-05  1.9828917316425494e-05  1.8249926804088506e-05  1.6644935090634466e-05  1.5032819300573631e-05  1.3434986283335261e-05  1.1874129549681763e-05  1.0372191202639858e-05  8.9472254516178061e-06  7.6067564135922792e-06  6.3289408360664158e-06  5.0036366947771732e-06  3.2552352790661824e-06  0.0000000000000000e+00  6.0000000000000002e-05  5.6337320260731522e-05  5.5150662797726559e-05  5.4772495332448205e-05  5.4642845153325568e-05  5.4584640337026626e-05  5.4538431677284188e-05  5.4480640537795168e-05  5.4397648633564389e-05  5.4277540791667424e-05  5.4107556796844859e-05  5.3873520844045157e-05  5.3560093937199181e-05  5.3151482035325670e-05  5.2632420956208476e-05  5.1989027358792721e-05  5.1206794131678877e-05  5.0243548073907256e-05  4.8767359952187789e-05  4.4501463638108631e-05  3.7995761718429778e-05  3.2461206863206035e-05  2.8250734011719619e-05  2.4987290392115244e-05  2.2399390788148840e-05  2.0309313931640278e-05  1.8598735581100415e-05  1.7195474614911280e-05  1.6089085478760895e-05  1.5414927796613102e-05  1.5736849865809051e-05  1.8834799491979099e-05  2.4651207670518191e-05  2.6003172687097760e-05  2.5487459474162963e-05  2.4339100616628929e-05  2.2961589270453253e-05  2.1480179885832976e-05  1.9936270979421563e-05  1.8349457487374159e-05  1.6736480539369910e-05  1.5116259306140451e-05  1.3510285457131004e-05  1.1941360598824360e-05  1.0431545897236900e-05  8.9990166792140331e-06  7.6514156925524271e-06  6.3670144660653070e-06  5.0357168009109287e-06  3.2810164097321720e-06  0.0000000000000000e+00  6.0000000000000002e-05  5.6567417747234451e-05  5.5411122785230058e-05  5.5042043722221040e-05  5.4915220019078211e-05  5.4857864748466553e-05  5.4811849549822473e-05  5.4753994850903320e-05  5.4670784799995562e-05  5.4550305727234332e-05  5.4379759347979334e-05  5.4144911848554843e-05  5.3830353667655666e-05  5.3420212420457790e-05  5.2899144586219234e-05  5.2253209771983607e-05  5.1468022877572391e-05  5.0502993223309938e-05  4.9037656642101714e-05  4.5073472132970605e-05  3.8947956734851755e-05  3.3496073642711279e-05  2.9251361392211521e-05  2.5929969931506373e-05  2.3282644711977213e-05  2.1137171265527772e-05  1.9376115784900065e-05  1.7926452533802055e-05  1.6775223591465310e-05  1.6051343449755180e-05  1.6299047275608180e-05  1.9232816853423347e-05  2.4882925179663024e-05  2.6176876491281875e-05  2.5633982518453766e-05  2.4472017638338071e-05  2.3085294407001236e-05  2.1595899692173947e-05  2.0044215524503839e-05  1.8449530746878029e-05  1.6828526314151616e-05  1.5200158639637464e-05  1.3586002997071199e-05  1.2008969073217365e-05  1.0491237508792989e-05  9.0511053093510241e-06  7.6963343403045710e-06  6.4053100073175178e-06  5.0679674661132211e-06  3.3067520880998759e-06  0.0000000000000000e+00  6.0000000000000002e-05  5.6791787627200418e-05  5.5670807376956002e-05  5.5312286187299101e-05  5.5188752535655956e-05  5.5132393187888511e-05  5.5086617533336093e-05  5.5028713490270293e-05  5.4945289187110697e-05  5.4824439152532361e-05  5.4653328995158353e-05  5.4417667319904417e-05  5.4101973906630047e-05  5.3690297759721281e-05  5.3167215879796916e-05  5.2518732454791542e-05  5.1730601578681402e-05  5.0763953716696351e-05  4.9312229884685410e-05  4.5620867442058633e-05  3.9848608017855182e-05  3.4505425669698717e-05  3.0246442783491216e-05  2.6879085943426293e-05  2.4179717399393190e-05  2.1983475311628499e-05  2.0174797744366141e-05  1.8680346358832546e-05  1.7484863675426313e-05  1.6710672029454930e-05  1.6882218792443200e-05  1.9653939184664446e-05  2.5130427187753330e-05  2.6356323440796430e-05  2.5782810237985288e-05  2.4606116421906598e-05  2.3209805417228029e-05  2.1712283252283294e-05  2.0152753874355912e-05  1.8550149487787715e-05  1.6921075164171029e-05  1.5284519840007864e-05  1.3662141206790673e-05  1.2076957028673350e-05  1.0551267839483473e-05  9.1034928864419936e-06  7.7415136333354057e-06  6.4438284738331995e-06  5.1003899136790532e-06  3.3324525302198985e-06  0.0000000000000000e+00  6.0000000000000002e-05  5.7010661727803891e-05  5.5929771013202203e-05  5.5583244246864304e-05  5.5463454189722339e-05  5.5408233994274364e-05  5.5362742976889189e-05  5.5304803497465453e-05  5.5221168746157650e-05  5.5099947998417846e-05  5.4928272671677541e-05  5.4691794200757929e-05  5.4374961606384572e-05  5.3961745009711387e-05  5.3436641777102112e-05  5.2785602206508879e-05  5.1994535898380045e-05  5.1026429035056494e-05  4.9590753894251142e-05  4.6147333403320635e-05  4.0703139327498784e-05  3.5489419198536877e-05  3.1235449700977148e-05  2.7834383156590780e-05  2.5090721800008904e-05  2.2848645423821422e-05  2.0995428733022894e-05  1.9457964564223812e-05  1.8218923879418851e-05  1.7393907826456439e-05  1.7487433661492750e-05  2.0098091074810653e-05  2.5393526378966774e-05  2.6541430672789337e-05  2.5933913773228837e-05  2.4741390117955233e-05  2.3335122513426791e-05  2.1829332885810480e-05  2.0261888882188020e-05  1.8651316593154638e-05  1.7014129833672727e-05  1.5369345450160524e-05  1.3738702401015987e-05  1.2145326539138168e-05  1.0611638716997314e-05  9.1561809889672724e-06  7.7869548957808311e-06  6.4825709624157228e-06  5.1329855834501605e-06  3.3581288264249372e-06  0.0000000000000000e+00  6.0000000000000002e-05  5.7224314102505581e-05  5.6188077388844029e-05  5.5854942411555753e-05  5.5739337433985446e-05  5.5685395834368944e-05  5.5640233354803663e-05  5.5582271974206561e-05  5.5498430466498787e-05  5.5376839225040623e-05  5.5204597335064335e-05  5.4967299453751791e-05  5.4649323734840359e-05  5.4234561138113321e-05  5.3707429224043541e-05  5.3053825820540520e-05  5.2259831425634905e-05  5.1290417862888787e-05  4.9872931990603629e-05  4.6656057865161740e-05  4.1516733421930366e-05  3.6448728200783250e-05  3.2218148305267964e-05  2.8795785651960601e-05  2.6015897756884868e-05  2.3733202019710186e-05  2.1838742811091479e-05  2.0260193563320783e-05  1.8978393778970321e-05  1.8102105825743822e-05  1.8115766288907919e-05  2.0565326021214413e-05  2.5671997129212992e-05  2.6732095128226525e-05  2.6087257447781307e-05  2.4877829730689554e-05  2.3461245239570474e-05  2.1947050705088310e-05  2.0371623337313341e-05  1.8753034927631267e-05  1.7107693064578784e-05  1.5454638018499935e-05  1.3815688905857159e-05  1.2214079695607956e-05  1.0672351991966355e-05  9.2091712251965862e-06  7.8326594926500796e-06  6.5215386406357234e-06  5.1657561080698211e-06  3.3837927395793690e-06  0.0000000000000000e+00  6.0000000000000002e-05  5.7433051947616880e-05  5.6445799161719974e-05  5.6127408078378468e-05  5.6016415654842726e-05  5.5963887692806102e-05  5.5919096264000322e-05  5.5861126082171287e-05  5.5777081376459307e-05  5.5655119823348429e-05  5.5482309969192060e-05  5.5244190064271777e-05  5.4925067279085704e-05  5.4508753127987987e-05  5.3979585177336674e-05  5.3323410090104118e-05  5.2526493681791402e-05  5.1555917974693239e-05  5.0158494976475046e-05  4.7149811686087265e-05  4.2294264248467548e-05  3.7384478269921307e-05  3.3194604433732321e-05  2.9763409864835006e-05  2.6955623903933940e-05  2.4637776381555170e-05  2.2705568839425945e-05  2.1088004387382451e-05  1.9764340159182938e-05  1.8836387160781706e-05  1.8768310471543179e-05  2.1055800735682724e-05  2.5965577339343511e-05  2.6928193761078088e-05  2.6242798988093962e-05  2.5015424194073551e-05  2.3588172497213462e-05  2.2065438625149076e-05  2.0481959970167065e-05  1.8855307340690121e-05  1.7201767598699555e-05  1.5540400100204676e-05  1.3893103059054879e-05  1.2283218605239438e-05  1.0733409535848498e-05  9.2624652296655492e-06  7.8786288242368319e-06  6.5607327368264423e-06  5.1987032924325200e-06  3.4094565453109745e-06  0.0000000000000000e+00  6.0000000000000002e-05  5.7637208266665900e-05  5.6703017652536119e-05  5.6400671423128950e-05  5.6294703139273911e-05  5.6243718861960704e-05  5.6199339421194312e-05  5.6141373042670318e-05  5.6057128543994990e-05  5.5934796816340140e-05  5.5761417586050357e-05  5.5522473042774888e-05  5.5202199248303015e-05  5.4784327981342134e-05  5.4253116608726253e-05  5.3594361813110785e-05  5.2794528127309866e-05  5.1822926175643706e-05  5.0447199179603271e-05  4.7631016552866837e-05  4.3040277842820123e-05  3.8298181220291606e-05  3.4165185251829626e-05  3.0737576616752827e-05  2.7910429512883205e-05  2.5563120686638454e-05  2.3596838784066312e-05  2.1942459642080186e-05  2.0577913049323027e-05  1.9597944875194866e-05  1.9446191739995182e-05  2.1569756849692910e-05  2.6273969588081414e-05  2.7129583790614402e-05  2.6400489747696019e-05  2.5154160449211782e-05  2.3715902571485896e-05  2.2184498373446705e-05  2.0592901456911629e-05  1.8958136669431354e-05  1.7296356179609920e-05  1.5626634258302040e-05  1.3970947210193253e-05  1.2352745390620912e-05  1.0794813239185387e-05  9.3160646602728706e-06  7.9248643215053235e-06  6.6001545317346209e-06  5.2318290956920401e-06  3.4351329070425668e-06  0.0000000000000000e+00  6.0000000000000002e-05  5.7837135991135164e-05  5.6959822525352951e-05  5.6674765289013875e-05  5.6574215040531569e-05  5.6524898931390462e-05  5.6480970659912271e-05  5.6423020136188363e-05  5.6338579077205846e-05  5.6215877260110959e-05  5.6041927227232746e-05  5.5802155426737194e-05  5.5480726676217956e-05  5.5061292722110867e-05  5.4528030508522585e-05  5.3866687796377655e-05  5.3063940168481380e-05  5.2091438284397131e-05  5.0738824284268833e-05  4.8101802925407611e-05  4.3759000947286417e-05  3.9191674923604395e-05  3.5130558019495606e-05  3.1718822127458433e-05  2.8881006195424192e-05  2.6510118196178616e-05  2.4513596264319390e-05  2.2824720714698723e-05  2.1420352006857593e-05  2.0388050007774386e-05  2.0150578351155031e-05  2.2107507996159085e-05  2.6596841635141839e-05  2.7336103003407375e-05  2.6560274939440497e-05  2.5294023524089193e-05  2.3844433157588378e-05  2.2304231499469871e-05  2.0704450423743720e-05  1.9061525741066000e-05  1.7391461554256037e-05  1.5713343064577821e-05  1.4049223720886049e-05  1.2422662189176659e-05  1.0856565010168842e-05  9.3699711958880301e-06  7.9713674422765807e-06  6.6398053515254442e-06  5.2651356153188697e-06  3.4608347798164716e-06  0.0000000000000000e+00  6.0000000000000002e-05  5.8033203313633302e-05  5.7216311442425881e-05  5.6949725070489224e-05  5.6854967342295406e-05  5.6807437776767684e-05  5.6763997927308393e-05  5.6706074701799483e-05  5.6621440124717832e-05  5.6498368244725024e-05  5.6323845965191557e-05  5.6083244282294803e-05  5.5760656623156768e-05  5.533965439865820