<?xml version="1.0"?>
<VTKFile type="UnstructuredGrid"  version="0.1"  >
<UnstructuredGrid>
<Piece  NumberOfPoints="2601" NumberOfCells="5000">
<Points>
<DataArray  type="Float64"  NumberOfComponents="3"  format="ascii">-1 0 0  -0.96 0 0  -0.92 0 0  -0.88 0 0  -0.84 0 0  -0.8 0 0  -0.76 0 0  -0.72 0 0  -0.6799999999999999 0 0  -0.64 0 0  -0.6 0 0  -0.5600000000000001 0 0  -0.52 0 0  -0.48 0 0  -0.4399999999999999 0 0  -0.4 0 0  -0.36 0 0  -0.32 0 0  -0.28 0 0  -0.24 0 0  -0.2 0 0  -0.16 0 0  -0.12 0 0  -0.07999999999999996 0 0  -0.04000000000000004 0 0  0 0 0  0.04000000000000004 0 0  0.08000000000000007 0 0  0.1200000000000001 0 0  0.1599999999999999 0 0  0.2 0 0  0.24 0 0  0.28 0 0  0.3200000000000001 0 0  0.3600000000000001 0 0  0.3999999999999999 0 0  0.4399999999999999 0 0  0.48 0 0  0.52 0 0  0.5600000000000001 0 0  0.6000000000000001 0 0  0.6399999999999999 0 0  0.6799999999999999 0 0  0.72 0 0  0.76 0 0  0.8 0 0  0.8400000000000001 0 0  0.8799999999999999 0 0  0.9199999999999999 0 0  0.96 0 0  1 0 0  -1 0.016 0  -0.96 0.016 0  -0.92 0.016 0  -0.88 0.016 0  -0.84 0.016 0  -0.8 0.016 0  -0.76 0.016 0  -0.72 0.016 0  -0.6799999999999999 0.016 0  -0.64 0.016 0  -0.6 0.016 0  -0.5600000000000001 0.016 0  -0.52 0.016 0  -0.48 0.016 0  -0.4399999999999999 0.016 0  -0.4 0.016 0  -0.36 0.016 0  -0.32 0.016 0  -0.28 0.016 0  -0.24 0.016 0  -0.2 0.016 0  -0.16 0.016 0  -0.12 0.016 0  -0.07999999999999996 0.016 0  -0.04000000000000004 0.016 0  0 0.016 0  0.04000000000000004 0.016 0  0.08000000000000007 0.016 0  0.1200000000000001 0.016 0  0.1599999999999999 0.016 0  0.2 0.016 0  0.24 0.016 0  0.28 0.016 0  0.3200000000000001 0.016 0  0.3600000000000001 0.016 0  0.3999999999999999 0.016 0  0.4399999999999999 0.016 0  0.48 0.016 0  0.52 0.016 0  0.5600000000000001 0.016 0  0.6000000000000001 0.016 0  0.6399999999999999 0.016 0  0.6799999999999999 0.016 0  0.72 0.016 0  0.76 0.016 0  0.8 0.016 0  0.8400000000000001 0.016 0  0.8799999999999999 0.016 0  0.9199999999999999 0.016 0  0.96 0.016 0  1 0.016 0  -1 0.032 0  -0.96 0.032 0  -0.92 0.032 0  -0.88 0.032 0  -0.84 0.032 0  -0.8 0.032 0  -0.76 0.032 0  -0.72 0.032 0  -0.6799999999999999 0.032 0  -0.64 0.032 0  -0.6 0.032 0  -0.5600000000000001 0.032 0  -0.52 0.032 0  -0.48 0.032 0  -0.4399999999999999 0.032 0  -0.4 0.032 0  -0.36 0.032 0  -0.32 0.032 0  -0.28 0.032 0  -0.24 0.032 0  -0.2 0.032 0  -0.16 0.032 0  -0.12 0.032 0  -0.07999999999999996 0.032 0  -0.04000000000000004 0.032 0  0 0.032 0  0.04000000000000004 0.032 0  0.08000000000000007 0.032 0  0.1200000000000001 0.032 0  0.1599999999999999 0.032 0  0.2 0.032 0  0.24 0.032 0  0.28 0.032 0  0.3200000000000001 0.032 0  0.3600000000000001 0.032 0  0.3999999999999999 0.032 0  0.4399999999999999 0.032 0  0.48 0.032 0  0.52 0.032 0  0.5600000000000001 0.032 0  0.6000000000000001 0.032 0  0.6399999999999999 0.032 0  0.6799999999999999 0.032 0  0.72 0.032 0  0.76 0.032 0  0.8 0.032 0  0.8400000000000001 0.032 0  0.8799999999999999 0.032 0  0.9199999999999999 0.032 0  0.96 0.032 0  1 0.032 0  -1 0.04800000000000001 0  -0.96 0.04800000000000001 0  -0.92 0.04800000000000001 0  -0.88 0.04800000000000001 0  -0.84 0.04800000000000001 0  -0.8 0.04800000000000001 0  -0.76 0.04800000000000001 0  -0.72 0.04800000000000001 0  -0.6799999999999999 0.04800000000000001 0  -0.64 0.04800000000000001 0  -0.6 0.04800000000000001 0  -0.5600000000000001 0.04800000000000001 0  -0.52 0.04800000000000001 0  -0.48 0.04800000000000001 0  -0.4399999999999999 0.04800000000000001 0  -0.4 0.04800000000000001 0  -0.36 0.04800000000000001 0  -0.32 0.04800000000000001 0  -0.28 0.04800000000000001 0  -0.24 0.04800000000000001 0  -0.2 0.04800000000000001 0  -0.16 0.04800000000000001 0  -0.12 0.04800000000000001 0  -0.07999999999999996 0.04800000000000001 0  -0.04000000000000004 0.04800000000000001 0  0 0.04800000000000001 0  0.04000000000000004 0.04800000000000001 0  0.08000000000000007 0.04800000000000001 0  0.1200000000000001 0.04800000000000001 0  0.1599999999999999 0.04800000000000001 0  0.2 0.04800000000000001 0  0.24 0.04800000000000001 0  0.28 0.04800000000000001 0  0.3200000000000001 0.04800000000000001 0  0.3600000000000001 0.04800000000000001 0  0.3999999999999999 0.04800000000000001 0  0.4399999999999999 0.04800000000000001 0  0.48 0.04800000000000001 0  0.52 0.04800000000000001 0  0.5600000000000001 0.04800000000000001 0  0.6000000000000001 0.04800000000000001 0  0.6399999999999999 0.04800000000000001 0  0.6799999999999999 0.04800000000000001 0  0.72 0.04800000000000001 0  0.76 0.04800000000000001 0  0.8 0.04800000000000001 0  0.8400000000000001 0.04800000000000001 0  0.8799999999999999 0.04800000000000001 0  0.9199999999999999 0.04800000000000001 0  0.96 0.04800000000000001 0  1 0.04800000000000001 0  -1 0.064 0  -0.96 0.064 0  -0.92 0.064 0  -0.88 0.064 0  -0.84 0.064 0  -0.8 0.064 0  -0.76 0.064 0  -0.72 0.064 0  -0.6799999999999999 0.064 0  -0.64 0.064 0  -0.6 0.064 0  -0.5600000000000001 0.064 0  -0.52 0.064 0  -0.48 0.064 0  -0.4399999999999999 0.064 0  -0.4 0.064 0  -0.36 0.064 0  -0.32 0.064 0  -0.28 0.064 0  -0.24 0.064 0  -0.2 0.064 0  -0.16 0.064 0  -0.12 0.064 0  -0.07999999999999996 0.064 0  -0.04000000000000004 0.064 0  0 0.064 0  0.04000000000000004 0.064 0  0.08000000000000007 0.064 0  0.1200000000000001 0.064 0  0.1599999999999999 0.064 0  0.2 0.064 0  0.24 0.064 0  0.28 0.064 0  0.3200000000000001 0.064 0  0.3600000000000001 0.064 0  0.3999999999999999 0.064 0  0.4399999999999999 0.064 0  0.48 0.064 0  0.52 0.064 0  0.5600000000000001 0.064 0  0.6000000000000001 0.064 0  0.6399999999999999 0.064 0  0.6799999999999999 0.064 0  0.72 0.064 0  0.76 0.064 0  0.8 0.064 0  0.8400000000000001 0.064 0  0.8799999999999999 0.064 0  0.9199999999999999 0.064 0  0.96 0.064 0  1 0.064 0  -1 0.08 0  -0.96 0.08 0  -0.92 0.08 0  -0.88 0.08 0  -0.84 0.08 0  -0.8 0.08 0  -0.76 0.08 0  -0.72 0.08 0  -0.6799999999999999 0.08 0  -0.64 0.08 0  -0.6 0.08 0  -0.5600000000000001 0.08 0  -0.52 0.08 0  -0.48 0.08 0  -0.4399999999999999 0.08 0  -0.4 0.08 0  -0.36 0.08 0  -0.32 0.08 0  -0.28 0.08 0  -0.24 0.08 0  -0.2 0.08 0  -0.16 0.08 0  -0.12 0.08 0  -0.07999999999999996 0.08 0  -0.04000000000000004 0.08 0  0 0.08 0  0.04000000000000004 0.08 0  0.08000000000000007 0.08 0  0.1200000000000001 0.08 0  0.1599999999999999 0.08 0  0.2 0.08 0  0.24 0.08 0  0.28 0.08 0  0.3200000000000001 0.08 0  0.3600000000000001 0.08 0  0.3999999999999999 0.08 0  0.4399999999999999 0.08 0  0.48 0.08 0  0.52 0.08 0  0.5600000000000001 0.08 0  0.6000000000000001 0.08 0  0.6399999999999999 0.08 0  0.6799999999999999 0.08 0  0.72 0.08 0  0.76 0.08 0  0.8 0.08 0  0.8400000000000001 0.08 0  0.8799999999999999 0.08 0  0.9199999999999999 0.08 0  0.96 0.08 0  1 0.08 0  -1 0.09600000000000002 0  -0.96 0.09600000000000002 0  -0.92 0.09600000000000002 0  -0.88 0.09600000000000002 0  -0.84 0.09600000000000002 0  -0.8 0.09600000000000002 0  -0.76 0.09600000000000002 0  -0.72 0.09600000000000002 0  -0.6799999999999999 0.09600000000000002 0  -0.64 0.09600000000000002 0  -0.6 0.09600000000000002 0  -0.5600000000000001 0.09600000000000002 0  -0.52 0.09600000000000002 0  -0.48 0.09600000000000002 0  -0.4399999999999999 0.09600000000000002 0  -0.4 0.09600000000000002 0  -0.36 0.09600000000000002 0  -0.32 0.09600000000000002 0  -0.28 0.09600000000000002 0  -0.24 0.09600000000000002 0  -0.2 0.09600000000000002 0  -0.16 0.09600000000000002 0  -0.12 0.09600000000000002 0  -0.07999999999999996 0.09600000000000002 0  -0.04000000000000004 0.09600000000000002 0  0 0.09600000000000002 0  0.04000000000000004 0.09600000000000002 0  0.08000000000000007 0.09600000000000002 0  0.1200000000000001 0.09600000000000002 0  0.1599999999999999 0.09600000000000002 0  0.2 0.09600000000000002 0  0.24 0.09600000000000002 0  0.28 0.09600000000000002 0  0.3200000000000001 0.09600000000000002 0  0.3600000000000001 0.09600000000000002 0  0.3999999999999999 0.09600000000000002 0  0.4399999999999999 0.09600000000000002 0  0.48 0.09600000000000002 0  0.52 0.09600000000000002 0  0.5600000000000001 0.09600000000000002 0  0.6000000000000001 0.09600000000000002 0  0.6399999999999999 0.09600000000000002 0  0.6799999999999999 0.09600000000000002 0  0.72 0.09600000000000002 0  0.76 0.09600000000000002 0  0.8 0.09600000000000002 0  0.8400000000000001 0.09600000000000002 0  0.8799999999999999 0.09600000000000002 0  0.9199999999999999 0.09600000000000002 0  0.96 0.09600000000000002 0  1 0.09600000000000002 0  -1 0.112 0  -0.96 0.112 0  -0.92 0.112 0  -0.88 0.112 0  -0.84 0.112 0  -0.8 0.112 0  -0.76 0.112 0  -0.72 0.112 0  -0.6799999999999999 0.112 0  -0.64 0.112 0  -0.6 0.112 0  -0.5600000000000001 0.112 0  -0.52 0.112 0  -0.48 0.112 0  -0.4399999999999999 0.112 0  -0.4 0.112 0  -0.36 0.112 0  -0.32 0.112 0  -0.28 0.112 0  -0.24 0.112 0  -0.2 0.112 0  -0.16 0.112 0  -0.12 0.112 0  -0.07999999999999996 0.112 0  -0.04000000000000004 0.112 0  0 0.112 0  0.04000000000000004 0.112 0  0.08000000000000007 0.112 0  0.1200000000000001 0.112 0  0.1599999999999999 0.112 0  0.2 0.112 0  0.24 0.112 0  0.28 0.112 0  0.3200000000000001 0.112 0  0.3600000000000001 0.112 0  0.3999999999999999 0.112 0  0.4399999999999999 0.112 0  0.48 0.112 0  0.52 0.112 0  0.5600000000000001 0.112 0  0.6000000000000001 0.112 0  0.6399999999999999 0.112 0  0.6799999999999999 0.112 0  0.72 0.112 0  0.76 0.112 0  0.8 0.112 0  0.8400000000000001 0.112 0  0.8799999999999999 0.112 0  0.9199999999999999 0.112 0  0.96 0.112 0  1 0.112 0  -1 0.128 0  -0.96 0.128 0  -0.92 0.128 0  -0.88 0.128 0  -0.84 0.128 0  -0.8 0.128 0  -0.76 0.128 0  -0.72 0.128 0  -0.6799999999999999 0.128 0  -0.64 0.128 0  -0.6 0.128 0  -0.5600000000000001 0.128 0  -0.52 0.128 0  -0.48 0.128 0  -0.4399999999999999 0.128 0  -0.4 0.128 0  -0.36 0.128 0  -0.32 0.128 0  -0.28 0.128 0  -0.24 0.128 0  -0.2 0.128 0  -0.16 0.128 0  -0.12 0.128 0  -0.07999999999999996 0.128 0  -0.04000000000000004 0.128 0  0 0.128 0  0.04000000000000004 0.128 0  0.08000000000000007 0.128 0  0.1200000000000001 0.128 0  0.1599
[...]
<PointData  Scalars="f_100"> 
<DataArray  type="Float64"  Name="f_100"  format="ascii">6.0000000000000002e-05  5.4254435776248311e-05  5.2935509678644233e-05  5.2417286863291432e-05  5.2077955890888358e-05  5.1700177625284655e-05  5.1188821593836298e-05  5.0489616010421631e-05  4.9567713465736213e-05  4.8404873502125882e-05  4.7001482343939529e-05  4.5378287991118269e-05  4.3575803151943296e-05  4.1650782164566584e-05  3.9670094350300310e-05  3.7702738093045151e-05  3.5809243124260757e-05  3.4011949723665695e-05  3.2155613918115427e-05  2.5814718996928290e-05  1.8685000834730432e-05  1.5448829382638612e-05  1.3280034789644798e-05  1.1676254458954436e-05  1.0410209704749995e-05  9.3501489198310992e-06  8.4148690483980141e-06  7.5601901802699016e-06  6.7852923597587086e-06  6.1799819680200484e-06  6.1043942830676585e-06  8.0528528731434468e-06  1.0886595920110254e-05  1.0603542342197691e-05  9.2953377598765267e-06  7.7506752453456361e-06  6.2619450301153813e-06  4.9327420047713198e-06  3.7969504371521643e-06  2.8583996231978424e-06  2.1054279674812351e-06  1.5178380982274252e-06  1.0713029800539825e-06  7.4053352821190098e-07  5.0150704794544455e-07  3.3285998808637146e-07  2.1655187207157797e-07  1.3788828167828843e-07  8.4759736318867771e-08  4.5023779662032467e-08  0.0000000000000000e+00  6.0000000000000002e-05  5.4528584030199003e-05  5.3202836997654870e-05  5.2681350066255469e-05  5.2340517123064541e-05  5.1961457742090962e-05  5.1448413764450632e-05  5.0746770516718922e-05  4.9821439304852881e-05  4.8654004932305668e-05  4.7244756540521077e-05  4.5614442504846839e-05  4.3803685600378214e-05  4.1869457141951221e-05  3.9878930858433263e-05  3.7901464722772588e-05  3.5997974350569954e-05  3.4191364167312393e-05  3.2311002001458999e-05  2.6493799120788719e-05  1.9619971160997866e-05  1.6221164381476261e-05  1.3933569024086602e-05  1.2244632778518411e-05  1.0913960189801708e-05  9.8019924537260986e-06  8.8225135217761778e-06  7.9279785180899764e-06  7.1151776859485570e-06  6.4716991911901415e-06  6.3541021111271511e-06  8.1427960319859242e-06  1.0939860964965586e-05  1.0663920437453939e-05  9.3502042880035975e-06  7.7974849465419551e-06  6.3004949940182471e-06  4.9636521876135618e-06  3.8211508394791750e-06  2.8769197432756987e-06  2.1192882006122280e-06  1.5279851555267540e-06  1.0785721134139387e-06  7.4563081867757341e-07  5.0500703876771736e-07  3.3521416570008053e-07  2.1810379237949357e-07  1.3889191479844420e-07  8.5398998276564544e-08  4.5434887964404460e-08  0.0000000000000000e+00  6.0000000000000002e-05  5.4798685126667184e-05  5.3469342522366907e-05  5.2946055084771330e-05  5.2604179617707108e-05  5.2223981150610855e-05  5.1709289203851414e-05  5.1005213619335549e-05  5.0076445140845584e-05  4.8904399866094749e-05  4.7489271389920044e-05  4.5851808806444486e-05  4.4032745216529437e-05  4.2089269481499266e-05  4.0088860879480264e-05  3.8101240032002250e-05  3.6187725118484799e-05  3.4371915560170504e-05  3.2471774273915587e-05  2.7114137753554608e-05  2.0547651212547738e-05  1.6991892521160687e-05  1.4592666166077415e-05  1.2822042165315014e-05  1.1428554121312030e-05  1.0265626948723235e-05  9.2423441798908007e-06  8.3079181251088498e-06  7.4567465197672899e-06  6.7739673569881516e-06  6.6106269338667333e-06  8.2548913051670125e-06  1.1002042191453148e-05  1.0727499717991261e-05  9.4062850779760852e-06  7.8448512971928964e-06  6.3393687732995226e-06  4.9947867046575966e-06  3.8455198393936886e-06  2.8955694355394808e-06  2.1332475700648943e-06  1.5382069248484683e-06  1.0858964865766901e-06  7.5076812328583769e-07  5.0853541645098694e-07  3.3758806798492517e-07  2.1966914407666903e-07  1.3990451757442582e-07  8.6044005932419656e-08  4.5847327718396140e-08  0.0000000000000000e+00  6.0000000000000002e-05  5.5063943011955271e-05  5.3734985710473745e-05  5.3211395361641404e-05  5.2868946242749109e-05  5.2487753872536798e-05  5.1971455138200790e-05  5.1264953122707782e-05  5.0332739110959073e-05  4.9156066609284205e-05  4.7735035194759301e-05  4.6090395002243236e-05  4.4262989711068861e-05  4.2310226317806407e-05  4.0299890831082378e-05  3.8302069593386853e-05  3.6378499695400607e-05  3.4553595580936124e-05  3.2637588630954722e-05  2.7683835378459332e-05  2.1444315705534723e-05  1.7756751434655030e-05  1.5255491497434202e-05  1.3407549415587501e-05  1.1953563140358823e-05  1.0740942102832984e-05  9.6744615176059491e-06  8.7002531933523685e-06  7.8103499971318504e-06  7.0872608805610232e-06  6.8751596298032861e-06  8.3865560299415541e-06  1.1073281148486825e-05  1.0794330867647176e-05  9.4635998004717402e-06  7.8927808149709345e-06  6.3785683790110698e-06  5.0261458991790253e-06  3.8700570831160087e-06  2.9143480344406322e-06  2.1473052887713648e-06  1.5485026088816692e-06  1.0932753597099956e-06  7.5594479717277335e-07  5.1209164628403589e-07  3.3998126975523782e-07  2.2124760022765948e-07  1.4092584160757295e-07  8.6694558665648923e-08  4.6260847639796742e-08  0.0000000000000000e+00  6.0000000000000002e-05  5.5323799400626253e-05  5.3999742224220421e-05  5.3477368423583785e-05  5.3134821100172802e-05  5.2752782237256725e-05  5.2234918770693682e-05  5.1525996665810516e-05  5.0590329109954562e-05  4.9409013180999384e-05  4.7982055954522492e-05  4.6330208907978825e-05  4.4494426545843017e-05  4.2532334604207025e-05  4.0512027035808421e-05  3.8503958980824276e-05  3.6570302452549887e-05  3.4736399292255239e-05  3.2808101517659257e-05  2.8210054923710124e-05  2.2298508902465652e-05  1.8512699719231288e-05  1.5920484953468804e-05  1.4000355246015982e-05  1.2488642473673441e-05  1.1227885900414250e-05  1.0119008893910671e-05  9.1052590299863947e-06  8.1763561563961124e-06  7.4120407962303359e-06  7.1486978890024701e-06  8.5359377629157911e-06  1.1153684342201650e-05  1.0864451793991273e-05  9.5221629431060494e-06  7.9412784971374378e-06  6.4180955169486920e-06  5.0577302045756239e-06  3.8947624345936450e-06  2.9332551255376437e-06  2.1614608160139957e-06  1.5588716342548678e-06  1.1007081863134013e-06  7.6116035554004691e-07  5.1567532129521273e-07  3.4239344445073300e-07  2.2283890795466808e-07  1.4195569361040133e-07  8.7350500056822952e-08  4.6675282951655429e-08  0.0000000000000000e+00  6.0000000000000002e-05  5.5577890466945840e-05  5.4263601820723842e-05  5.3743975662203491e-05  5.3401809472222683e-05  5.3019072883413526e-05  5.2499687307285948e-05  5.1788351762249062e-05  5.0849222840442605e-05  4.9663247370855857e-05  4.8230341425407333e-05  4.6571258106450694e-05  4.4727062984212220e-05  4.2755601151165698e-05  4.0725275744050776e-05  3.8706913773603860e-05  3.6763137834723798e-05  3.4920324154710091e-05  3.2982976770294859e-05  2.8699045666487672e-05  2.3105908216390735e-05  1.9257316798485867e-05  1.6586273308164142e-05  1.4599754935634269e-05  1.3033508112279862e-05  1.1726451475193770e-05  1.0576165978641530e-05  9.5232407106183334e-06  8.5551546589747938e-06  7.7487718861724221e-06  7.4321027587856523e-06  8.7017170597294531e-06  1.1243323668950985e-05  1.0937887901811278e-05  9.5819840749964465e-06  7.9903478922856949e-06  6.4579515828553870e-06  5.0895401115036929e-06  3.9196359324698331e-06  2.9522905000577138e-06  2.1757138136842525e-06  1.5693136118736447e-06  1.1081945789131717e-06  7.6641444516879733e-07  5.1928613944856341e-07  3.4482434647705063e-07  2.2444287514002965e-07  1.4299392549974116e-07  8.8011710080854272e-08  4.7090538827064264e-08  0.0000000000000000e+00  6.0000000000000002e-05  5.5826010905572890e-05  5.4526566867346655e-05  5.4011222156255606e-05  5.3669917776852492e-05  5.3286632760146469e-05  5.2765767977910819e-05  5.2052025833322517e-05  5.1109427854374313e-05  4.9918776786048982e-05  4.8479899169606036e-05  4.6813549994960295e-05  4.4960906132424936e-05  4.2980032657785315e-05  4.0939643152766439e-05  3.8910939559782750e-05  3.6957010337328831e-05  3.5105369238948224e-05  3.3161891764938887e-05  2.9156213981349052e-05  2.3866247158210844e-05  1.9988625176567188e-05  1.7251643353174843e-05  1.5205123890700214e-05  1.3587928510918299e-05  1.2236672828495185e-05  1.1046147369988507e-05  9.9545341271594649e-06  8.9471609263362005e-06  8.0979331826816856e-06  7.7261398091545830e-06  8.8829657017902312e-06  1.1342237958619803e-05  1.1014652302029679e-05  9.6430680672930797e-06  8.0399911594813331e-06  6.4981376584431385e-06  5.1215761408062132e-06  3.9446777546708773e-06  2.9714541175317196e-06  2.1900641103373093e-06  1.5798283043470058e-06  1.1157342809045289e-06  7.7170682105079617e-07  5.2292388494620910e-07  3.4727379673349688e-07  2.2605935953398286e-07  1.4404042628501991e-07  8.8678098721682785e-08  4.7506576798738769e-08  0.0000000000000000e+00  6.0000000000000002e-05  5.6068084157433422e-05  5.4788651299203735e-05  5.4279116523063090e-05  5.3939153529810135e-05  5.3555469127766383e-05  5.3033168053880821e-05  5.2317026235265629e-05  5.1370951587241003e-05  5.0175608890154110e-05  4.8730736595886522e-05  4.7057091824346202e-05  4.5195962973630222e-05  4.3205635737672253e-05  4.1155135420824112e-05  3.9116041938952510e-05  3.7151924489075785e-05  3.5291534604271250e-05  3.3344541461241964e-05  2.9586213717317055e-05  2.4581480632870852e-05  2.0705065177918739e-05  1.7915539063756839e-05  1.5815915829334946e-05  1.4151724012306619e-05  1.2758625331819143e-05  1.1529204026855455e-05  1.0399508339899691e-05  9.3528199247664754e-06  8.4600248471193439e-06  8.0315097211238956e-06  9.0790446762510331e-06  1.1450435045677931e-05  1.1094745972695547e-05  9.7054152802152326e-06  8.0902091182275261e-06  6.5386545084786705e-06  5.1538388213296159e-06  3.9698881892988435e-06  2.9907460750785373e-06  2.2045116716559020e-06  1.5904155992361187e-06  1.1233271434395957e-06  7.7703732721738976e-07  5.2658841289733724e-07  3.4974167075255460e-07  2.2768825983248387e-07  1.4509511542612394e-07  8.9349600746344812e-08  4.7923403627439256e-08  0.0000000000000000e+00  6.0000000000000002e-05  5.6304137791797498e-05  5.5049879881324438e-05  5.4547670789979814e-05  5.4209525311294303e-05  5.3825589557680751e-05  5.3301894862056461e-05  5.2583360281666366e-05  5.1633801386259821e-05  5.0433751035100345e-05  4.8982860993016439e-05  4.7301890731111794e-05  4.5432240395845152e-05  4.3432416940175521e-05  4.1371758681578967e-05  3.9322226524525124e-05  3.7347884839001657e-05  3.5478820815950319e-05  3.3530640826185837e-05  2.9993040914500888e-05  2.5254699403023895e-05  2.1405505639659614e-05  1.8577067796539092e-05  1.6431667328700280e-05  1.4724770392359010e-05  1.3292428849850468e-05  1.2025626272167183e-05  1.0858568675796737e-05  9.7726097735802913e-06  8.8355731409773059e-06  8.3488714688954350e-06  9.2895306882978669e-06  1.1567893989350238e-05  1.1178157887099737e-05  9.7690217252441546e-06  8.1410012920015116e-06  6.5795025791060345e-06  5.1863286718760457e-06  3.9952676107457301e-06  3.0101665821666979e-06  2.2190565761835568e-06  1.6010754870851460e-06  1.1309731064566070e-06  7.8240588101175837e-07  5.3027963674723442e-07  3.5222788897950052e-07  2.2932950836847947e-07  1.4615793739424340e-07  9.0026171424569005e-08  4.8341062207480326e-08  0.0000000000000000e+00  6.0000000000000002e-05  5.6534283199162246e-05  5.5310287673268904e-05  5.4816900279043404e-05  5.4481042735540606e-05  5.4097001931436199e-05  5.3571955796266961e-05  5.2851035261882470e-05  5.1897984533598739e-05  5.0693210487523350e-05  4.9236279557299281e-05  4.7547953763875011e-05  4.5669745214958731e-05  4.3660382767834185e-05  4.1589519053183624e-05  3.9529498945642656e-05  3.7544895946838575e-05  3.5667228577211930e-05  3.3719926030567339e-05  3.0380124706949900e-05  2.5889495844563178e-05  2.2089247215807261e-05  1.9235509294351800e-05  1.7052005440228521e-05  1.5307004597130288e-05  1.3838252327842169e-05  1.2535747708334456e-05  1.1332160287696150e-05  1.0207045300212780e-05  9.2251344564040123e-06  8.6788602401507844e-06  9.5141631799835745e-06  1.1694567203771498e-05  1.1264865122097328e-05  9.8338792095682857e-06  8.1923659475573679e-06  6.6206819975233798e-06  5.2190461866629049e-06  4.0208164601345280e-06  3.0297159398885794e-06  2.2336989953899902e-06  1.6118080433795110e-06  1.1386721831078311e-06  7.8781246018539718e-07  5.3399751796889853e-07  3.5473240880549943e-07  2.3098306512449171e-07  1.4722885721737874e-07  9.0707783019544002e-08  4.8759624159177191e-08  0.0000000000000000e+00  6.0000000000000002e-05  5.6758698886708882e-05  5.5569919621217009e-05  5.5086823499642732e-05  5.4753716422035427e-05  5.4369714438784690e-05  5.3843358326388105e-05  5.3120058456137628e-05  5.2163508265509021e-05  5.0953994450489788e-05  4.9490999415267099e-05  4.7795287905151927e-05  4.5908484193661248e-05  4.3889539690717429e-05  4.1808422647050824e-05  3.9737864848793840e-05  3.7742962375985657e-05  3.5856758455207714e-05  3.3912154731673190e-05  3.0750410466861484e-05  2.6489601009592689e-05  2.2756007593916205e-05  1.9890324682584689e-05  1.7676656591409160e-05  1.5898431626886216e-05  1.4396319220545374e-05  1.3059949693740457e-05  1.1820772028243221e-05  1.0656681624696676e-05  9.6292989428925204e-06  9.0221015775098424e-06  9.7528061113291577e-06  1.1830382353424253e-05  1.1354832957728825e-05  9.8999754685957856e-06  8.2443001317429306e-06  6.6621925730885713e-06  5.2519918237652989e-06  4.0465352293486870e-06  3.0493945239528698e-06  2.2484391772980337e-06  1.6226134137293883e-06  1.1464244469764665e-06  7.9325709231076324e-07  5.3774205760920213e-07  3.5725521803722564e-07  2.3264891282713665e-07  1.4830785683170556e-07  9.1394421907696437e-08  4.9179183817542114e-08  0.0000000000000000e+00  6.0000000000000002e-05  5.6977616783110005e-05  5.5828830223408564e-05  5.5357462045283780e-05  5.5027557967331254e-05  5.4643735574711796e-05  5.4116110005416006e-05  5.3390437147859797e-05  5.2430379788081610e-05  5.1216110081411067e-05  4.9747027642389784e-05  4.8043900089306101e-05  4.6148464057029138e-05  4.4119894158218268e-05  4.2028475574807682e-05  3.9947329899204589e-05  3.7942088688525284e-05  3.6047410683331745e-05  3.4107105689106430e-05  3.1106433672955562e-05  2.7058684230708165e-05  2.3405890801478297e-05  2.0541164059514514e-05  1.8305455796969901e-05  1.6499131993094442e-05  1.4966913422386838e-05  1.3598666190765187e-05  1.2324940562721291e-05  1.1122117826573308e-05  1.0048694021773268e-05  9.3792227879764906e-06  1.0005420388612254e-05  1.1975243932234858e-05  1.1448014977400667e-05  9.9672942912919612e-06  8.2967997072158077e-06  6.7040337998955298e-06  5.2851659961032496e-06  4.0724244480400925e-06  3.0692027707412388e-06  2.2632774330383102e-06  1.6334918017013680e-06  1.1542300215817897e-06  7.9873984609309992e-07  5.4151328935490390e-07  3.5979632954314739e-07  2.3432705292741260e-07  1.4939493209234132e-07  9.2086086211545210e-08  4.9599853375921590e-08  0.0000000000000000e+00  6.0000000000000002e-05  5.7191311055881683e-05  5.6087083230672517e-05  5.5628840491484723e-05  5.5302579916659256e-05  5.4919074135388652e-05  5.4390218474820699e-05  5.3662178633726662e-05  5.2698606290217734e-05  5.1479564506820499e-05  5.0004371278509020e-05  4.8293797217348031e-05  4.6389691505365528e-05  4.4351452608761718e-05  4.2249683954019188e-05  4.0157899782055276e-05  3.8142279441865503e-05  3.6239185024976063e-05  3.4304577905934996e-05  3.1450384337982689e-05  2.7600249557034211e-05  2.4039346550239827e-05  2.1187871995683060e-05  1.8938355645709802e-05  1.7109269426597249e-05  1.5550385508786130e-05  1.4152388880784932e-05  1.2845254680500984e-05  1.1604000727101101e-05  1.0483987942807418e-05  9.7508623727459874e-06  1.0272043988716828e-05  1.2129034486087336e-05  1.1544353176308384e-05  1.0035815642223846e-05  8.3498593881483950e-06  6.7462048608378809e-06  5.3185690646070099e-06  4.0984846731116411e-06  3.0891411658904984e-06  2.2782141258103043e-06  1.6444434588240023e-06  1.1620890717612655e-06  8.0426082423912571e-07  5.4531127384388338e-07  3.6235577686336930e-07  2.3601750230597542e-07  1.5049009032352908e-07  9.2782783851060058e-08  5.0021758984252455e-08  0.0000000000000000e+00  6.0000000000000002e-05  5.7400089025297679e-05  5.6344751355723550e-05  5.5900986292550862e-05  5.5578795734716585e-05  5.5195739213029990e-05  5.4665691468417503e-05  5.3935290231803425e-05  5.2968194954301344e-05  5.1744364834569210e-05  5.0263037340580141e-05  4.8544986169148236e-05  4.6632173224789829e-05  4.4584221477805238e-05  4.2472053912908293e-05  4.0369580203567272e-05  3.8343539186696588e-05  3.6432080686228836e-05  3.4504389442821633e-05  3.1784162539854303e-05  2.8117589362559595e-05  2.4657125528294961e-05  2.1830490710431239e-05  1.9575434782392606e-05  1.7729098652993404e-05  1.6147159178909880e-05  1.4721672486247832e-05  1.3382359782445625e-05  1.2103028806215626e-05  1.0935893461785094e-05  1.0137678026915550e-05  1.0552777660666099e-05  1.2291615465002794e-05  1.1643778084494095e-05  1.0105515783466837e-05  8.4034727767714120e-06  6.7887046331567800e-06  5.3522013332530713e-06  4.1247164802577108e-06  3.1092102349563124e-06  2.2932496618208206e-06  1.6554686763772894e-06  1.1700017965916811e-06  8.0982015760149273e-07  5.4913609399622183e-07  3.6493361060823042e-07  2.3772029057157866e-07  1.5159334830991193e-07  9.3484530936341992e-08  5.0445037635622478e-08  0.0000000000000000e+00  6.0000000000000002e-05  5.7604283826613375e-05  5.6601915973794313e-05  5.6173929675533272e-05  5.5856219775153495e-05  5.5473740189655163e-05  5.4942536814956917e-05  5.4209779288091836e-05  5.3239152964975921e-05  5.2010518163899007e-05  5.0523032833202524e-05  4.8797473813527686e-05  4.6875915895982206e-05  4.4818207204441820e-05  4.2695591594258394e-05  4.0582376891991966e-05  3.8545872466028383e-05  3.6626096267136005e-05  3.4706376017041616e-05  3.2109425932680517e-05  2.8613771238789373e-05  2.5260235215620461e-05  2.2469261018509827e-05  2.0216905754497840e-05  1.8358973128702050e-05  1.6757737833836762e-05  1.5307140263525503e-05  1.3936962530309513e-05  1.2619956264965524e-05  1.1405171677875090e-05  1.0540353616555140e-05  1.0847774681200407e-05  1.2462827707593127e-05  1.1746208909918916e-05  1.0176367398920816e-05  8.4576324014090113e-06  6.8315316954543290e-06  5.3860630457123366e-06  4.1511204572176484e-06  3.1294105357924034e-06  2.3083844828466251e-06  1.6665677786453214e-06  1.1779684235715178e-06  8.1541800036808317e-07  5.5298785118006249e-07  3.6752989550220080e-07  2.3943545784455417e-07  1.5270473064828767e-07  9.4191350438593288e-08  5.0869834703015719e-08  0.0000000000000000e+00  6.0000000000000002e-05  5.7804248529086340e-05  5.6858666803694119e-05  5.6447703530105480e-05  5.6134867248406689e-05  5.5753086729762660e-05  5.5220762439602525e-05  5.4485653181754924e-05  5.3511487516358070e-05  5.2278031593770307e-05  5.0784364757334824e-05  4.9051267016607733e-05  4.7120926201416692e-05  4.5053416236860663e-05  4.2920303158650333e-05  4.0796295598528443e-05  3.8749283815133258e-05  3.6821229742987200e-05  3.4910389469856772e-05  3.2427630229348336e-05  2.9091643837654872e-05  2.5849899274612051e-05  2.3104621367985617e-05  2.0863122187475744e-05  1.8999352676878463e-05  1.7382711248500251e-05  1.5909489642861158e-05  1.4509835648381648e-05  1.3155597238536221e-05  1.1892636049056462e-05  1.0959605439833452e-05  1.1157233568310348e-05  1.2642491569971696e-05  1.1851553706174949e-05  1.0248339723072438e-05  8.5123297564975960e-06  6.8746843361416327e-06  5.4201543833923537e-06  4.1776971984563534e-06  3.1497426523431583e-06  2.3236190601302582e-06  1.6777411173680699e-06  1.1859892038360622e-06  8.2105452610630270e-07  5.5686666206020318e-07  3.7014470795527061e-07  2.4116305293658813e-07  1.5382426839371217e-07  9.4903271087848794e-08  5.1296302011472560e-08  0.0000000000000000e+00  6.0000000000000002e-05  5.8000351467786285e-05  5.7115101563089649e-05  5.6722343293433790e-05  5.6414754187625348e-05  5.6033788771938407e-05  5.5500376364440936e-05  5.4762919329237779e-05  5.3785205817963395e-05  5.2546912229757493e-05  5.1047040117522153e-05  4.9306372648734812e-05  4.7367210831358342e-05  4.528985503687512