<?xml version="1.0"?>
<VTKFile type="UnstructuredGrid"  version="0.1"  >
<UnstructuredGrid>
<Piece  NumberOfPoints="2601" NumberOfCells="5000">
<Points>
<DataArray  type="Float64"  NumberOfComponents="3"  format="ascii">-1 0 0  -0.96 0 0  -0.92 0 0  -0.88 0 0  -0.84 0 0  -0.8 0 0  -0.76 0 0  -0.72 0 0  -0.6799999999999999 0 0  -0.64 0 0  -0.6 0 0  -0.5600000000000001 0 0  -0.52 0 0  -0.48 0 0  -0.4399999999999999 0 0  -0.4 0 0  -0.36 0 0  -0.32 0 0  -0.28 0 0  -0.24 0 0  -0.2 0 0  -0.16 0 0  -0.12 0 0  -0.07999999999999996 0 0  -0.04000000000000004 0 0  0 0 0  0.04000000000000004 0 0  0.08000000000000007 0 0  0.1200000000000001 0 0  0.1599999999999999 0 0  0.2 0 0  0.24 0 0  0.28 0 0  0.3200000000000001 0 0  0.3600000000000001 0 0  0.3999999999999999 0 0  0.4399999999999999 0 0  0.48 0 0  0.52 0 0  0.5600000000000001 0 0  0.6000000000000001 0 0  0.6399999999999999 0 0  0.6799999999999999 0 0  0.72 0 0  0.76 0 0  0.8 0 0  0.8400000000000001 0 0  0.8799999999999999 0 0  0.9199999999999999 0 0  0.96 0 0  1 0 0  -1 0.016 0  -0.96 0.016 0  -0.92 0.016 0  -0.88 0.016 0  -0.84 0.016 0  -0.8 0.016 0  -0.76 0.016 0  -0.72 0.016 0  -0.6799999999999999 0.016 0  -0.64 0.016 0  -0.6 0.016 0  -0.5600000000000001 0.016 0  -0.52 0.016 0  -0.48 0.016 0  -0.4399999999999999 0.016 0  -0.4 0.016 0  -0.36 0.016 0  -0.32 0.016 0  -0.28 0.016 0  -0.24 0.016 0  -0.2 0.016 0  -0.16 0.016 0  -0.12 0.016 0  -0.07999999999999996 0.016 0  -0.04000000000000004 0.016 0  0 0.016 0  0.04000000000000004 0.016 0  0.08000000000000007 0.016 0  0.1200000000000001 0.016 0  0.1599999999999999 0.016 0  0.2 0.016 0  0.24 0.016 0  0.28 0.016 0  0.3200000000000001 0.016 0  0.3600000000000001 0.016 0  0.3999999999999999 0.016 0  0.4399999999999999 0.016 0  0.48 0.016 0  0.52 0.016 0  0.5600000000000001 0.016 0  0.6000000000000001 0.016 0  0.6399999999999999 0.016 0  0.6799999999999999 0.016 0  0.72 0.016 0  0.76 0.016 0  0.8 0.016 0  0.8400000000000001 0.016 0  0.8799999999999999 0.016 0  0.9199999999999999 0.016 0  0.96 0.016 0  1 0.016 0  -1 0.032 0  -0.96 0.032 0  -0.92 0.032 0  -0.88 0.032 0  -0.84 0.032 0  -0.8 0.032 0  -0.76 0.032 0  -0.72 0.032 0  -0.6799999999999999 0.032 0  -0.64 0.032 0  -0.6 0.032 0  -0.5600000000000001 0.032 0  -0.52 0.032 0  -0.48 0.032 0  -0.4399999999999999 0.032 0  -0.4 0.032 0  -0.36 0.032 0  -0.32 0.032 0  -0.28 0.032 0  -0.24 0.032 0  -0.2 0.032 0  -0.16 0.032 0  -0.12 0.032 0  -0.07999999999999996 0.032 0  -0.04000000000000004 0.032 0  0 0.032 0  0.04000000000000004 0.032 0  0.08000000000000007 0.032 0  0.1200000000000001 0.032 0  0.1599999999999999 0.032 0  0.2 0.032 0  0.24 0.032 0  0.28 0.032 0  0.3200000000000001 0.032 0  0.3600000000000001 0.032 0  0.3999999999999999 0.032 0  0.4399999999999999 0.032 0  0.48 0.032 0  0.52 0.032 0  0.5600000000000001 0.032 0  0.6000000000000001 0.032 0  0.6399999999999999 0.032 0  0.6799999999999999 0.032 0  0.72 0.032 0  0.76 0.032 0  0.8 0.032 0  0.8400000000000001 0.032 0  0.8799999999999999 0.032 0  0.9199999999999999 0.032 0  0.96 0.032 0  1 0.032 0  -1 0.04800000000000001 0  -0.96 0.04800000000000001 0  -0.92 0.04800000000000001 0  -0.88 0.04800000000000001 0  -0.84 0.04800000000000001 0  -0.8 0.04800000000000001 0  -0.76 0.04800000000000001 0  -0.72 0.04800000000000001 0  -0.6799999999999999 0.04800000000000001 0  -0.64 0.04800000000000001 0  -0.6 0.04800000000000001 0  -0.5600000000000001 0.04800000000000001 0  -0.52 0.04800000000000001 0  -0.48 0.04800000000000001 0  -0.4399999999999999 0.04800000000000001 0  -0.4 0.04800000000000001 0  -0.36 0.04800000000000001 0  -0.32 0.04800000000000001 0  -0.28 0.04800000000000001 0  -0.24 0.04800000000000001 0  -0.2 0.04800000000000001 0  -0.16 0.04800000000000001 0  -0.12 0.04800000000000001 0  -0.07999999999999996 0.04800000000000001 0  -0.04000000000000004 0.04800000000000001 0  0 0.04800000000000001 0  0.04000000000000004 0.04800000000000001 0  0.08000000000000007 0.04800000000000001 0  0.1200000000000001 0.04800000000000001 0  0.1599999999999999 0.04800000000000001 0  0.2 0.04800000000000001 0  0.24 0.04800000000000001 0  0.28 0.04800000000000001 0  0.3200000000000001 0.04800000000000001 0  0.3600000000000001 0.04800000000000001 0  0.3999999999999999 0.04800000000000001 0  0.4399999999999999 0.04800000000000001 0  0.48 0.04800000000000001 0  0.52 0.04800000000000001 0  0.5600000000000001 0.04800000000000001 0  0.6000000000000001 0.04800000000000001 0  0.6399999999999999 0.04800000000000001 0  0.6799999999999999 0.04800000000000001 0  0.72 0.04800000000000001 0  0.76 0.04800000000000001 0  0.8 0.04800000000000001 0  0.8400000000000001 0.04800000000000001 0  0.8799999999999999 0.04800000000000001 0  0.9199999999999999 0.04800000000000001 0  0.96 0.04800000000000001 0  1 0.04800000000000001 0  -1 0.064 0  -0.96 0.064 0  -0.92 0.064 0  -0.88 0.064 0  -0.84 0.064 0  -0.8 0.064 0  -0.76 0.064 0  -0.72 0.064 0  -0.6799999999999999 0.064 0  -0.64 0.064 0  -0.6 0.064 0  -0.5600000000000001 0.064 0  -0.52 0.064 0  -0.48 0.064 0  -0.4399999999999999 0.064 0  -0.4 0.064 0  -0.36 0.064 0  -0.32 0.064 0  -0.28 0.064 0  -0.24 0.064 0  -0.2 0.064 0  -0.16 0.064 0  -0.12 0.064 0  -0.07999999999999996 0.064 0  -0.04000000000000004 0.064 0  0 0.064 0  0.04000000000000004 0.064 0  0.08000000000000007 0.064 0  0.1200000000000001 0.064 0  0.1599999999999999 0.064 0  0.2 0.064 0  0.24 0.064 0  0.28 0.064 0  0.3200000000000001 0.064 0  0.3600000000000001 0.064 0  0.3999999999999999 0.064 0  0.4399999999999999 0.064 0  0.48 0.064 0  0.52 0.064 0  0.5600000000000001 0.064 0  0.6000000000000001 0.064 0  0.6399999999999999 0.064 0  0.6799999999999999 0.064 0  0.72 0.064 0  0.76 0.064 0  0.8 0.064 0  0.8400000000000001 0.064 0  0.8799999999999999 0.064 0  0.9199999999999999 0.064 0  0.96 0.064 0  1 0.064 0  -1 0.08 0  -0.96 0.08 0  -0.92 0.08 0  -0.88 0.08 0  -0.84 0.08 0  -0.8 0.08 0  -0.76 0.08 0  -0.72 0.08 0  -0.6799999999999999 0.08 0  -0.64 0.08 0  -0.6 0.08 0  -0.5600000000000001 0.08 0  -0.52 0.08 0  -0.48 0.08 0  -0.4399999999999999 0.08 0  -0.4 0.08 0  -0.36 0.08 0  -0.32 0.08 0  -0.28 0.08 0  -0.24 0.08 0  -0.2 0.08 0  -0.16 0.08 0  -0.12 0.08 0  -0.07999999999999996 0.08 0  -0.04000000000000004 0.08 0  0 0.08 0  0.04000000000000004 0.08 0  0.08000000000000007 0.08 0  0.1200000000000001 0.08 0  0.1599999999999999 0.08 0  0.2 0.08 0  0.24 0.08 0  0.28 0.08 0  0.3200000000000001 0.08 0  0.3600000000000001 0.08 0  0.3999999999999999 0.08 0  0.4399999999999999 0.08 0  0.48 0.08 0  0.52 0.08 0  0.5600000000000001 0.08 0  0.6000000000000001 0.08 0  0.6399999999999999 0.08 0  0.6799999999999999 0.08 0  0.72 0.08 0  0.76 0.08 0  0.8 0.08 0  0.8400000000000001 0.08 0  0.8799999999999999 0.08 0  0.9199999999999999 0.08 0  0.96 0.08 0  1 0.08 0  -1 0.09600000000000002 0  -0.96 0.09600000000000002 0  -0.92 0.09600000000000002 0  -0.88 0.09600000000000002 0  -0.84 0.09600000000000002 0  -0.8 0.09600000000000002 0  -0.76 0.09600000000000002 0  -0.72 0.09600000000000002 0  -0.6799999999999999 0.09600000000000002 0  -0.64 0.09600000000000002 0  -0.6 0.09600000000000002 0  -0.5600000000000001 0.09600000000000002 0  -0.52 0.09600000000000002 0  -0.48 0.09600000000000002 0  -0.4399999999999999 0.09600000000000002 0  -0.4 0.09600000000000002 0  -0.36 0.09600000000000002 0  -0.32 0.09600000000000002 0  -0.28 0.09600000000000002 0  -0.24 0.09600000000000002 0  -0.2 0.09600000000000002 0  -0.16 0.09600000000000002 0  -0.12 0.09600000000000002 0  -0.07999999999999996 0.09600000000000002 0  -0.04000000000000004 0.09600000000000002 0  0 0.09600000000000002 0  0.04000000000000004 0.09600000000000002 0  0.08000000000000007 0.09600000000000002 0  0.1200000000000001 0.09600000000000002 0  0.1599999999999999 0.09600000000000002 0  0.2 0.09600000000000002 0  0.24 0.09600000000000002 0  0.28 0.09600000000000002 0  0.3200000000000001 0.09600000000000002 0  0.3600000000000001 0.09600000000000002 0  0.3999999999999999 0.09600000000000002 0  0.4399999999999999 0.09600000000000002 0  0.48 0.09600000000000002 0  0.52 0.09600000000000002 0  0.5600000000000001 0.09600000000000002 0  0.6000000000000001 0.09600000000000002 0  0.6399999999999999 0.09600000000000002 0  0.6799999999999999 0.09600000000000002 0  0.72 0.09600000000000002 0  0.76 0.09600000000000002 0  0.8 0.09600000000000002 0  0.8400000000000001 0.09600000000000002 0  0.8799999999999999 0.09600000000000002 0  0.9199999999999999 0.09600000000000002 0  0.96 0.09600000000000002 0  1 0.09600000000000002 0  -1 0.112 0  -0.96 0.112 0  -0.92 0.112 0  -0.88 0.112 0  -0.84 0.112 0  -0.8 0.112 0  -0.76 0.112 0  -0.72 0.112 0  -0.6799999999999999 0.112 0  -0.64 0.112 0  -0.6 0.112 0  -0.5600000000000001 0.112 0  -0.52 0.112 0  -0.48 0.112 0  -0.4399999999999999 0.112 0  -0.4 0.112 0  -0.36 0.112 0  -0.32 0.112 0  -0.28 0.112 0  -0.24 0.112 0  -0.2 0.112 0  -0.16 0.112 0  -0.12 0.112 0  -0.07999999999999996 0.112 0  -0.04000000000000004 0.112 0  0 0.112 0  0.04000000000000004 0.112 0  0.08000000000000007 0.112 0  0.1200000000000001 0.112 0  0.1599999999999999 0.112 0  0.2 0.112 0  0.24 0.112 0  0.28 0.112 0  0.3200000000000001 0.112 0  0.3600000000000001 0.112 0  0.3999999999999999 0.112 0  0.4399999999999999 0.112 0  0.48 0.112 0  0.52 0.112 0  0.5600000000000001 0.112 0  0.6000000000000001 0.112 0  0.6399999999999999 0.112 0  0.6799999999999999 0.112 0  0.72 0.112 0  0.76 0.112 0  0.8 0.112 0  0.8400000000000001 0.112 0  0.8799999999999999 0.112 0  0.9199999999999999 0.112 0  0.96 0.112 0  1 0.112 0  -1 0.128 0  -0.96 0.128 0  -0.92 0.128 0  -0.88 0.128 0  -0.84 0.128 0  -0.8 0.128 0  -0.76 0.128 0  -0.72 0.128 0  -0.6799999999999999 0.128 0  -0.64 0.128 0  -0.6 0.128 0  -0.5600000000000001 0.128 0  -0.52 0.128 0  -0.48 0.128 0  -0.4399999999999999 0.128 0  -0.4 0.128 0  -0.36 0.128 0  -0.32 0.128 0  -0.28 0.128 0  -0.24 0.128 0  -0.2 0.128 0  -0.16 0.128 0  -0.12 0.128 0  -0.07999999999999996 0.128 0  -0.04000000000000004 0.128 0  0 0.128 0  0.04000000000000004 0.128 0  0.08000000000000007 0.128 0  0.1200000000000001 0.128 0  0.1599
[...]
<PointData  Scalars="f_100"> 
<DataArray  type="Float64"  Name="f_100"  format="ascii">6.0000000000000002e-05  5.4259944937556340e-05  5.2951802687440606e-05  5.2452847316404220e-05  5.2144827759623568e-05  5.1813955932493075e-05  5.1367916149174513e-05  5.0753641191087496e-05  4.9935063553580796e-05  4.8889790463617514e-05  4.7611138817212224e-05  4.6110512981707877e-05  4.4418019060936457e-05  4.2580499489658980e-05  4.0656981891976334e-05  3.8711943108265741e-05  3.6805338814629792e-05  3.4962369288309603e-05  3.3030478368531108e-05  2.6478775067914973e-05  1.9125933177401479e-05  1.5781393785333599e-05  1.3545031386912902e-05  1.1902184876137261e-05  1.0619418184320938e-05  9.5602050300850914e-06  8.6389392240481102e-06  7.8075138597518160e-06  7.0629545369608100e-06  6.4987051709677936e-06  6.4962449767773334e-06  8.6409347339898633e-06  1.1741855207126868e-05  1.1551991632681862e-05  1.0255119663465442e-05  8.6740538790366983e-06  7.1177342031939216e-06  5.7003727867856229e-06  4.4647215833214810e-06  3.4224672878095046e-06  2.5685418303444184e-06  1.8877364524126478e-06  1.3589652894783496e-06  9.5852837650256522e-07  6.6261471519514891e-07  4.4905960503204640e-07  2.9837292190670451e-07  1.9402868504273002e-07  1.2168353686955490e-07  6.5676570167133300e-08  0.0000000000000000e+00  6.0000000000000002e-05  5.4534082595019118e-05  5.3219138318796148e-05  5.2716963311053350e-05  5.2407528095542863e-05  5.2075522837806380e-05  5.1628024282943414e-05  5.1011638883308321e-05  5.0190065801114902e-05  4.9140732108645572e-05  4.7856835829669370e-05  4.6349743568306651e-05  4.4649620657931820e-05  4.2803469862036963e-05  4.0870569535138384e-05  3.8915714173174255e-05  3.6999222216293980e-05  3.5146862137299816e-05  3.3190271979939918e-05  2.7176264243338790e-05  2.0084533714153140e-05  1.6571575819367188e-05  1.4212239837049948e-05  1.2481521515972474e-05  1.1132572369250884e-05  1.0020847156688787e-05  9.0555330602826541e-06  8.1849541226909025e-06  7.4035185884387212e-06  6.8021882624067840e-06  6.7585445092116330e-06  8.7366042618014359e-06  1.1798692089384620e-05  1.1617020626592474e-05  1.0314925588670157e-05  8.7257839538930235e-06  7.1609837615734841e-06  5.7356165169888745e-06  4.4927904254634286e-06  3.4443354424502093e-06  2.5852145558266303e-06  1.9001789678554398e-06  1.3680563464510668e-06  9.6503322466579469e-07  6.6717410475791589e-07  4.5219125885666089e-07  3.0048171471494861e-07  1.9542217740605012e-07  1.2259082967005937e-07  6.6273059445383241e-08  0.0000000000000000e+00  6.0000000000000002e-05  5.4804173413710670e-05  5.3485652362418724e-05  5.2981721412178442e-05  5.2671330288110824e-05  5.2338334179656711e-05  5.1889417688681328e-05  5.1270928405700322e-05  5.0446352930844934e-05  4.9392944228907720e-05  4.8103782951710088e-05  4.6590198187834158e-05  4.4882414603690953e-05  4.3027595658154122e-05  4.1085271353682617e-05  3.9120556717948649e-05  3.7194149795101450e-05  3.5332520999416311e-05  3.3355591970990729e-05  2.7813336277393968e-05  2.1035666155265191e-05  1.7360112220443251e-05  1.4885136057806574e-05  1.3070078576406627e-05  1.1656789934294922e-05  1.0493524691085870e-05  9.4845872324129659e-06  8.5748562281321590e-06  7.7561109184491318e-06  7.1165683961574235e-06  7.0278143196290124e-06  8.8554728922490756e-06  1.1864902553518974e-05  1.1685424567897037e-05  1.0376020099252693e-05  8.7781116099545408e-06  7.2045865710071059e-06  5.7711093207303733e-06  4.5210497647578312e-06  3.4663525708485577e-06  2.6020032910775332e-06  1.9127105083469632e-06  1.3772144635836029e-06  9.7158758920866500e-07  6.7176932000295377e-07  4.5534831256245193e-07  3.0260816324626111e-07  1.9682771027580499e-07  1.2350597975899324e-07  6.6871189326416032e-08  0.0000000000000000e+00  6.0000000000000002e-05  5.5069421371430963e-05  5.3751304250933205e-05  5.3247115013814153e-05  5.2936237128029156e-05  5.2602395871627040e-05  5.2152103456850147e-05  5.1531517410586393e-05  5.0703932931035090e-05  4.9646435010412883e-05  4.8351988423781508e-05  4.6831884967096789e-05  4.5116408727894120e-05  4.3252884232607292e-05  4.1301094073695668e-05  3.9326476685266139e-05  3.7390126205017892e-05  3.5519337620694602e-05  3.3526087036327598e-05  2.8398329652415318e-05  2.1954963116845326e-05  1.8142625408239031e-05  1.5561835436521177e-05  1.3666896054812592e-05  1.2191627960021841e-05  1.0978120454500507e-05  9.9262011464095697e-06  8.9774686540713922e-06  8.1210931058004850e-06  7.4423398388730595e-06  7.3053140942863190e-06  8.9948201089154914e-06  1.1940635376062467e-05  1.1757256672341553e-05  1.0438424154594613e-05  8.8310440399724785e-06  7.2485450832366672e-06  5.8068518636168007e-06  4.5494994833205555e-06  3.4885181674667309e-06  2.6189073418573217e-06  1.9253303135723857e-06  1.3864388956981120e-06  9.7819079139529160e-07  6.7639977624871463e-07  4.5853028476951952e-07  3.0475188472673926e-07  1.9824498202594941e-07  1.2442873203324471e-07  6.7470616544209979e-08  0.0000000000000000e+00  6.0000000000000002e-05  5.5329268203090465e-05  5.4016069625254183e-05  5.3513141602156725e-05  5.3202252653391809e-05  5.2867714153918904e-05  5.2416088679061579e-05  5.1793413412492435e-05  5.0962813575676281e-05  4.9901212377196282e-05  4.8601460199913731e-05  4.7074811747140829e-05  4.5351610601897765e-05  4.3479342734591448e-05  4.1518044289459678e-05  3.9533479973865634e-05  3.7587156155885014e-05  3.5707307174569915e-05  3.3701404387596469e-05  2.8938615437464730e-05  2.2830657352054269e-05  1.8915992374393809e-05  1.6240736596667240e-05  1.4271153029225396e-05  1.2736731099046801e-05  1.1474578852015409e-05  1.0380519755015147e-05  9.3930729459837478e-06  8.4988445013159511e-06  7.7799823734602002e-06  7.5920991685052654e-06  9.1526962051412937e-06  1.2026002059479753e-05  1.1832556712971004e-05  1.0502153206256364e-05  8.8845867787729622e-06  7.2928613765254261e-06  5.8428448626624243e-06  4.5781396592788884e-06  3.5108319687153026e-06  2.6359262611011140e-06  1.9380378555512856e-06  1.3957291044351434e-06  9.8484232878131663e-07  6.8106503352539710e-07  4.6173680896540646e-07  3.0691258509126732e-07  1.9967375915855286e-07  1.2535888844148442e-07  6.8071120225822094e-08  0.0000000000000000e+00  6.0000000000000002e-05  5.5583350094159534e-05  5.4279938224189888e-05  5.3779802535052873e-05  5.3469382093545849e-05  5.3134295591585297e-05  5.2681380469560865e-05  5.2056623823358073e-05  5.1223002469823195e-05  5.0157284044078081e-05  4.8852206004561817e-05  4.7318986139987652e-05  4.5588027590683777e-05  4.3706978150510192e-05  4.1736128492830526e-05  3.9741572450694030e-05  3.7785244391323901e-05  3.5896427257987863e-05  3.3881198843181541e-05  2.9440622983416417e-05  2.3658307331251332e-05  1.9677727900851696e-05  1.6920430506588014e-05  1.4882126365854342e-05  1.3291807182712665e-05  1.1982891426307690e-05  1.0847725967149259e-05  9.8219816774171015e-06  8.8897667707445957e-06  8.1299791689077101e-06  7.8890797662366001e-06  9.3277135964146085e-06  1.2121077356913306e-05  1.1911351303031368e-05  1.0567217482258684e-05  8.9387437870994088e-06  7.3375371590567972e-06  5.8790890591608884e-06  4.6069705273710263e-06  3.5332939092058870e-06  2.6530598051723660e-06  1.9508327976267839e-06  1.4050847216710884e-06  9.9154184393221377e-07  6.8576477081277434e-07  4.6496761299189526e-07  3.0909004309636664e-07  2.0111386409192184e-07  1.2629629796671238e-07  6.8672578450237716e-08  0.0000000000000000e+00  6.0000000000000002e-05  5.5831461743029406e-05  5.4542912399210825e-05  5.4047102863039639e-05  5.3737631822597914e-05  5.3402147073028677e-05  5.2947985982944602e-05  5.2321155981579293e-05  5.1484507086974120e-05  5.0414657560139181e-05  4.9104233379418929e-05  4.7564415575327271e-05  4.5825666895578605e-05  4.3935797338976296e-05  4.1955353097330970e-05  3.9950759960879025e-05  3.7984395672582082e-05  3.6086697089473777e-05  3.4065139148027404e-05  2.9909913421191546e-05  2.4437637373861084e-05  2.0425801737799991e-05  1.7599672515938793e-05  1.5499175381891534e-05  1.3856618139250243e-05  1.2503091907445434e-05  1.1328038732615828e-05  1.0264539150410539e-05  9.2942879699330703e-06  8.4928277032985321e-06  8.1970642043019715e-06  9.5188968682089153e-06  1.2225900958779630e-05  1.1993654111875552e-05  1.0633622224149266e-05  8.9935175207579153e-06  7.3825737717068686e-06  5.9155851963240983e-06  4.6359924465063928e-06  3.5559040857615203e-06  2.6703078978985845e-06  1.9637149607711434e-06  1.4145055194792673e-06  9.9828909875088823e-07  6.9049876490846281e-07  4.6822250222716594e-07  3.1128409730132975e-07  2.0256516515711183e-07  1.2724084843048901e-07  6.9274949001274047e-08  0.0000000000000000e+00  6.0000000000000002e-05  5.6073526588273817e-05  5.4805006071446719e-05  5.4315051179752985e-05  5.4007009319898355e-05  5.3671275808413612e-05  5.3215912428678786e-05  5.2587017175938131e-05  5.1747334799886719e-05  5.0673340344551459e-05  4.9357549721976153e-05  4.7811107338954179e-05  4.6064535589388965e-05  4.4165807059567581e-05  4.2175724457916727e-05  4.0161048335935281e-05  3.8184614766855707e-05  3.6278116876890606e-05  3.4252912128891707e-05  3.0351273097982296e-05  2.5170653470141508e-05  2.1158612494027915e-05  1.8277379191678153e-05  1.6121739671008989e-05  1.4430979067081749e-05  1.3035256397756047e-05  1.1821714216978625e-05  1.0721123586090768e-05  9.7128663243646435e-06  8.8690468839374377e-06  8.5167910421021181e-06  9.7255749176321907e-06  1.2340479727497422e-05  1.2079466031376323e-05  1.0701367888095863e-05  9.0489089889305909e-06  7.4279721907164027e-06  5.9523340009766157e-06  4.6652058730953923e-06  3.5786627278205993e-06  2.6876706010081973e-06  1.9766842959033191e-06  1.4239913854641643e-06  1.0050839534085266e-06  6.9526687309411165e-07  4.7150134579738593e-07  3.1349463539958627e-07  2.0402756840307280e-07  1.2819245978249125e-07  6.9878253598711385e-08  0.0000000000000000e+00  6.0000000000000002e-05  5.6309572191876487e-05  5.5066243993421608e-05  5.4583659492558554e-05  5.4277523135377203e-05  5.3941689327725899e-05  5.3485167082890079e-05  5.2854214665291591e-05  5.2011492905978553e-05  5.0933339716110747e-05  4.9612162317290521e-05  4.8059068604412965e-05  4.6304640645307124e-05  4.4397013996459186e-05  4.2397248887200109e-05  4.0372443400536725e-05  3.8385906438983178e-05  3.6470687326623983e-05  3.4444225183969647e-05  3.0768811310257285e-05  2.5860528402602631e-05  2.1874998521730287e-05  1.8952634524927725e-05  1.6749343577200678e-05  1.5014761663648428e-05  1.3579506369773257e-05  1.2329048698240254e-05  1.1192150162083704e-05  1.0145993859893867e-05  9.2591821629006769e-06  8.8489534723821543e-06  9.9473032951689799e-06  1.2464790082117168e-05  1.2168775308648738e-05  1.0770450319235828e-05  9.1049178047601516e-06  7.4737330306643888e-06  5.9893361687092710e-06  4.6946113391645299e-06  3.6015701731109500e-06  2.7051480898325813e-06  1.9897408611463382e-06  1.4335423025074626e-06  1.0119263490528622e-06  7.0006901891649900e-07  4.7480406527166011e-07  3.1572158547570128e-07  2.0550101088294155e-07  1.2915107860123231e-07  7.0482565012880400e-08  0.0000000000000000e+00  6.0000000000000002e-05  5.6539709933065218e-05  5.5326661213314067e-05  5.4852943106518190e-05  5.4549182858040859e-05  5.4213395478275912e-05  5.3755757297826542e-05  5.3122755694740004e-05  5.2276988648259436e-05  5.1194662917583367e-05  4.9868078364164073e-05  4.8308306459060601e-05  4.6545988960698167e-05  4.4629424777852286e-05  4.2619932668774317e-05  4.0584950978126978e-05  3.8588275445687855e-05  3.6664409269668801e-05  3.4638807510917464e-05  3.1166054003571457e-05  2.6510950306877486e-05  2.2574241258054375e-05  1.9624699076203071e-05  1.7381603884200832e-05  1.5607899973756809e-05  1.4136013234978370e-05  1.2850382458944913e-05  1.1678074565767322e-05  1.0594199994401808e-05  9.6638096631644190e-06  9.1942181868584430e-06  1.0183808242789793e-05  1.2598780281884151e-05  1.2261557658800261e-05  1.0840860906855898e-05  9.1615422306915206e-06  7.5198565480475864e-06  6.0265923519921000e-06  4.7242094344438662e-06  3.6246268476687584e-06  2.7227406333388362e-06  2.0028848031433501e-06  1.4431583321362605e-06  1.0188162936159370e-06  7.0490518052314128e-07  4.7813062539253746e-07  3.1796490883998668e-07  2.0698545515317750e-07  1.3011667358248145e-07  7.1087996568556817e-08  0.0000000000000000e+00  6.0000000000000002e-05  5.6764118304553220e-05  5.5586302666750603e-05  5.5122920516492070e-05  5.4821999086287255e-05  5.4486402421495385e-05  5.4027690509319343e-05  5.3392647508870781e-05  5.2543829232576581e-05  5.1457317135781271e-05  5.0125304996724713e-05  4.8558827925538760e-05  4.6788587376683391e-05  4.4863045991954495e-05  4.2843782068165094e-05  4.0798576895589477e-05  3.8791726531762684e-05  3.6859283383521450e-05  3.4836410395686960e-05  3.1546029419040655e-05  2.7125749857989407e-05  2.3256050017471456e-05  2.0293019145069102e-05  1.8018238863351644e-05  1.6210397354331834e-05  1.4705003813367556e-05  1.3386104285841268e-05  1.2179396892699060e-05  1.1058055166562551e-05  1.0083539878929886e-05  9.5532402652865869e-06  1.0434946344281222e-05  1.2742372457366511e-05  1.2357776369316997e-05  1.0912586726610684e-05  9.2187792205548618e-06  7.5663426456936229e-06  6.0641031508271538e-06  4.7540007917549729e-06  3.6478332494401796e-06  2.7404485777246108e-06  2.0161163417080420e-06  1.4528396008648356e-06  1.0257538501647986e-06  7.0977538109259258e-07  4.8148102647481942e-07  3.2022459415545043e-07  2.0848088476571276e-07  1.3108923183322060e-07  7.1694693627648071e-08  0.0000000000000000e+00  6.0000000000000002e-05  5.6983029217990481e-05  5.5845222842002722e-05  5.5393613303438813e-05  5.5095983398979599e-05  5.4760718628917987e-05  5.4300974242523730e-05  5.3663897362569754e-05  5.2812021841816775e-05  5.1721309518119842e-05  5.0383849302224213e-05  4.8810639979473098e-05  4.7032442694271479e-05  4.5097884200132313e-05  4.3068803341841117e-05  4.1013326987158441e-05  3.8996264427751868e-05  3.7055309991887476e-05  3.5036806816132053e-05  3.1911344150915780e-05  2.7708694393398077e-05  2.3920530459957726e-05  2.0957234516286581e-05  1.8659077661060666e-05  1.6822334049131949e-05  1.5286766337703431e-05  1.3936656367642799e-05  1.2696665801402311e-05  1.1538174551986340e-05  1.0519021256471798e-05  9.9266751834940070e-06  1.0700675430811969e-05  1.2895464304234470e-05  1.2457382405758097e-05  1.0985610674861381e-05  9.2766244599671517e-06  7.6131908781741614e-06  6.1018691055888794e-06  4.7839860751439700e-06  3.6711899348376917e-06  2.7582723329425324e-06  2.0294357572139970e-06  1.4625862889770737e-06  1.0327391273381576e-06  7.1467968098207911e-07  4.8485529817143550e-07  3.2250065262320647e-07  2.0998730057297617e-07  1.3206875582262056e-07  7.2302826709650503e-08  0.0000000000000000e+00  6.0000000000000002e-05  5.7196716821842680e-05  5.6103485480316980e-05  5.5665046031927310e-05  5.5371148326447169e-05  5.5036352877267032e-05  5.4575616116173039e-05  5.3936512529807935e-05  5.3081573647596800e-05  5.1986647186279733e-05  5.0643718335725127e-05  4.9063749564072230e-05  4.7277561687655393e-05  4.5333945947744900e-05  4.3295002744637001e-05  4.1229207097717957e-05  3.9201893848806982e-05  3.7252488926994196e-05  3.5239790557970845e-05  3.2264249462175134e-05  2.8263381494749047e-05  2.4568142836960486e-05  2.1617184071878552e-05  1.9304069469213192e-05  1.7443875033812975e-05  1.5881656788110930e-05  1.4502539475430822e-05  1.3230482877224729e-05  1.2035221898447985e-05  1.0970943817474855e-05  1.0315188729389688e-05  1.0981033618274270e-05  1.3057930398314294e-05  1.2560314526764524e-05  1.1059911599282736e-05  9.3350724062977777e-06  7.6604004583363230e-06  6.1398906917555607e-06  4.8141659703001974e-06  3.6946975077336592e-06  2.7762123616337404e-06  2.0428433802333808e-06  1.4723986213116779e-06  1.0397722714936983e-06  7.1961817128273114e-07  4.8825349435925951e-07  3.2479311403457361e-07  2.1150471769814808e-07  1.3305526086890735e-07  7.2912585966587349e-08  0.0000000000000000e+00  6.0000000000000002e-05  5.7405488415733879e-05  5.6361163285050633e-05  5.5937246146596422e-05  5.5647507320767784e-05  5.5313314242599671e-05  5.4851623845542506e-05  5.4210500310740886e-05  5.3352491819881025e-05  5.2253337247485095e-05  5.0904919132230035e-05  4.9318163602179822e-05  4.7523951115183274e-05  4.5571237773077474e-05  4.3522386535878684e-05  4.1446223085608887e-05  3.9408619494484674e-05  3.7450819441759282e-05  3.5445174994895904e-05  3.2606698429305146e-05  2.8793191299275151e-05  2.5199656080635400e-05  2.2272909026853021e-05  1.9953292185700480e-05  1.8075277937405823e-05  1.6490105439429153e-05  1.5084318359841378e-05  1.3781507178882766e-05  1.2549913499211358e-05  1.1440042907516218e-05  1.0719465404334946e-05  1.1276124234653460e-05  1.3229623118352193e-05  1.2666499415025391e-05  1.1135464429110635e-05  9.3941163291733400e-06  7.7079702650319295e-06  6.1781683162816878e-06  4.8445411768802013e-06  3.7183566104643966e-06  2.7942691700420372e-06  2.0563395830222573e-06  1.4822768596902255e-06  1.0468534602577475e-06  7.2459096852810490e-07  4.9167568894205998e-07  3.2710202353256507e-07  2.1303316304960292e-07  1.3404877306328555e-07  7.3524176777069753e-08  0.0000000000000000e+00  6.0000000000000002e-05  5.7609677113016579e-05  5.6618337622174859e-05  5.6210243865854667e-05  5.5925074724838009e-05  5.5591612093478499e-05  5.5129005244289717e-05  5.4485868037400725e-05  5.3624783534888129e-05  5.2521386803820840e-05  5.1167458716709128e-05  4.9573889006235965e-05  4.7771617728421807e-05  4.5809766214718315e-05  4.3750960984448714e-05  4.1664380825041220e-05  3.9616446049318725e-05  3.7650300161225289e-05  3.5652791647852398e-05  3.2940394825009397e-05  2.9301273007005972e-05  2.5816102433400580e-05  2.2924653881596139e-05  2.0606960428790594e-05  1.8716900928132622e-05  1.7112623550891136e-05  1.5682627325455654e-05  1.4350459951722249e-05  1.3083022315014552e-05  1.1927103110090376e-05  1.1140215738688024e-05  1.1586105026638433e-05  1.3410373180052556e-05  1.2775851829779718e-05  1.1212240307754343e-05  9.4537483522757209e-06  7.7558988520930400e-06  6.2167023153995405e-06  4.8751124024218063e-06  3.7421679164926708e-06  2.8124433005557149e-06  2.0699247725211196e-06  1.4922212966920844e-06  1.0539828972239035e-06  7.2959821034709328e-07  4.9512197240408671e-07  3.2942743895369703e-07  2.1457267328025832e-07  1.3504932755021273e-07  7.4137816263889508e-08  0.0000000000000000e+00  6.0000000000000002e-05  5.7809635960069832e-05  5.6875098201231835e-05  5.6484072071544333e-05  5.6203865739862290e-05  5.5871256083158484e-05  5.5407768225312764e-05  5.4762623078212799e-05  5.3898455981586634e-05  5.2790802959937745e-05  5.1431344112402462e-05  4.9830932686523604e-05  4.8020568279656254e-05  4.6049537817662081e-05  4.3980732372986769e-05  4.1883686208191058e-05  3.9825378184046449e-05  3.7850929064548349e-05  3.5862488609258600e-05  3.3266834763745279e-05  2.9790550860991626e-05  2.6418735750670831e-05  2.3572865419353713e-05  2.1265432866618198e-05  1.9369210499699201e-05  1.7749810154025967e-05  1.6298175956893616e-05  1.4938129496856001e-05  1.3635382249758865e-05  1.2432962345090566e-05  1.1578182844757201e-05  1.1911180486851765e-05  1.3599989794931582e-05  1.2888274785635788e-05  1.1290206729952847e-05  9.5139594970062179e-06  7.8041844585773376e-06  6.2554929536700130e-06  4.9058803575866073e-06  3.7661321244379036e-06  2.8307353255861231e-06  2.0835993845977454e-06  1.5022322505326087e-06  1.0611608075922407e-06  7.3464005188951752e-07  4.9859244897750324e-07  3.3176942864412684e-07  2.1612329311035197e-07  1.3605696709805955e-07  7.4753730572507473e-08  0.0000000000000000e+00  6.0000000000000002e-05  5.8005733268328880e-05  5.7131542730536659e-05  5.6758766193637522e-05  5.6483896390994276e-05  5.6152256140791662e-05  5.5687920800747314e-05  5.5040772841530459e-05  5.4173516367027036e-05  5.3061592829433729e-05  5.1696582347707438e-05  5.0089301558010179e-05  4.8270809528111236e-05  4.629055913837215