<?xml version="1.0"?>
<VTKFile type="UnstructuredGrid"  version="0.1"  >
<UnstructuredGrid>
<Piece  NumberOfPoints="2601" NumberOfCells="5000">
<Points>
<DataArray  type="Float64"  NumberOfComponents="3"  format="ascii">-1 0 0  -0.96 0 0  -0.92 0 0  -0.88 0 0  -0.84 0 0  -0.8 0 0  -0.76 0 0  -0.72 0 0  -0.6799999999999999 0 0  -0.64 0 0  -0.6 0 0  -0.5600000000000001 0 0  -0.52 0 0  -0.48 0 0  -0.4399999999999999 0 0  -0.4 0 0  -0.36 0 0  -0.32 0 0  -0.28 0 0  -0.24 0 0  -0.2 0 0  -0.16 0 0  -0.12 0 0  -0.07999999999999996 0 0  -0.04000000000000004 0 0  0 0 0  0.04000000000000004 0 0  0.08000000000000007 0 0  0.1200000000000001 0 0  0.1599999999999999 0 0  0.2 0 0  0.24 0 0  0.28 0 0  0.3200000000000001 0 0  0.3600000000000001 0 0  0.3999999999999999 0 0  0.4399999999999999 0 0  0.48 0 0  0.52 0 0  0.5600000000000001 0 0  0.6000000000000001 0 0  0.6399999999999999 0 0  0.6799999999999999 0 0  0.72 0 0  0.76 0 0  0.8 0 0  0.8400000000000001 0 0  0.8799999999999999 0 0  0.9199999999999999 0 0  0.96 0 0  1 0 0  -1 0.016 0  -0.96 0.016 0  -0.92 0.016 0  -0.88 0.016 0  -0.84 0.016 0  -0.8 0.016 0  -0.76 0.016 0  -0.72 0.016 0  -0.6799999999999999 0.016 0  -0.64 0.016 0  -0.6 0.016 0  -0.5600000000000001 0.016 0  -0.52 0.016 0  -0.48 0.016 0  -0.4399999999999999 0.016 0  -0.4 0.016 0  -0.36 0.016 0  -0.32 0.016 0  -0.28 0.016 0  -0.24 0.016 0  -0.2 0.016 0  -0.16 0.016 0  -0.12 0.016 0  -0.07999999999999996 0.016 0  -0.04000000000000004 0.016 0  0 0.016 0  0.04000000000000004 0.016 0  0.08000000000000007 0.016 0  0.1200000000000001 0.016 0  0.1599999999999999 0.016 0  0.2 0.016 0  0.24 0.016 0  0.28 0.016 0  0.3200000000000001 0.016 0  0.3600000000000001 0.016 0  0.3999999999999999 0.016 0  0.4399999999999999 0.016 0  0.48 0.016 0  0.52 0.016 0  0.5600000000000001 0.016 0  0.6000000000000001 0.016 0  0.6399999999999999 0.016 0  0.6799999999999999 0.016 0  0.72 0.016 0  0.76 0.016 0  0.8 0.016 0  0.8400000000000001 0.016 0  0.8799999999999999 0.016 0  0.9199999999999999 0.016 0  0.96 0.016 0  1 0.016 0  -1 0.032 0  -0.96 0.032 0  -0.92 0.032 0  -0.88 0.032 0  -0.84 0.032 0  -0.8 0.032 0  -0.76 0.032 0  -0.72 0.032 0  -0.6799999999999999 0.032 0  -0.64 0.032 0  -0.6 0.032 0  -0.5600000000000001 0.032 0  -0.52 0.032 0  -0.48 0.032 0  -0.4399999999999999 0.032 0  -0.4 0.032 0  -0.36 0.032 0  -0.32 0.032 0  -0.28 0.032 0  -0.24 0.032 0  -0.2 0.032 0  -0.16 0.032 0  -0.12 0.032 0  -0.07999999999999996 0.032 0  -0.04000000000000004 0.032 0  0 0.032 0  0.04000000000000004 0.032 0  0.08000000000000007 0.032 0  0.1200000000000001 0.032 0  0.1599999999999999 0.032 0  0.2 0.032 0  0.24 0.032 0  0.28 0.032 0  0.3200000000000001 0.032 0  0.3600000000000001 0.032 0  0.3999999999999999 0.032 0  0.4399999999999999 0.032 0  0.48 0.032 0  0.52 0.032 0  0.5600000000000001 0.032 0  0.6000000000000001 0.032 0  0.6399999999999999 0.032 0  0.6799999999999999 0.032 0  0.72 0.032 0  0.76 0.032 0  0.8 0.032 0  0.8400000000000001 0.032 0  0.8799999999999999 0.032 0  0.9199999999999999 0.032 0  0.96 0.032 0  1 0.032 0  -1 0.04800000000000001 0  -0.96 0.04800000000000001 0  -0.92 0.04800000000000001 0  -0.88 0.04800000000000001 0  -0.84 0.04800000000000001 0  -0.8 0.04800000000000001 0  -0.76 0.04800000000000001 0  -0.72 0.04800000000000001 0  -0.6799999999999999 0.04800000000000001 0  -0.64 0.04800000000000001 0  -0.6 0.04800000000000001 0  -0.5600000000000001 0.04800000000000001 0  -0.52 0.04800000000000001 0  -0.48 0.04800000000000001 0  -0.4399999999999999 0.04800000000000001 0  -0.4 0.04800000000000001 0  -0.36 0.04800000000000001 0  -0.32 0.04800000000000001 0  -0.28 0.04800000000000001 0  -0.24 0.04800000000000001 0  -0.2 0.04800000000000001 0  -0.16 0.04800000000000001 0  -0.12 0.04800000000000001 0  -0.07999999999999996 0.04800000000000001 0  -0.04000000000000004 0.04800000000000001 0  0 0.04800000000000001 0  0.04000000000000004 0.04800000000000001 0  0.08000000000000007 0.04800000000000001 0  0.1200000000000001 0.04800000000000001 0  0.1599999999999999 0.04800000000000001 0  0.2 0.04800000000000001 0  0.24 0.04800000000000001 0  0.28 0.04800000000000001 0  0.3200000000000001 0.04800000000000001 0  0.3600000000000001 0.04800000000000001 0  0.3999999999999999 0.04800000000000001 0  0.4399999999999999 0.04800000000000001 0  0.48 0.04800000000000001 0  0.52 0.04800000000000001 0  0.5600000000000001 0.04800000000000001 0  0.6000000000000001 0.04800000000000001 0  0.6399999999999999 0.04800000000000001 0  0.6799999999999999 0.04800000000000001 0  0.72 0.04800000000000001 0  0.76 0.04800000000000001 0  0.8 0.04800000000000001 0  0.8400000000000001 0.04800000000000001 0  0.8799999999999999 0.04800000000000001 0  0.9199999999999999 0.04800000000000001 0  0.96 0.04800000000000001 0  1 0.04800000000000001 0  -1 0.064 0  -0.96 0.064 0  -0.92 0.064 0  -0.88 0.064 0  -0.84 0.064 0  -0.8 0.064 0  -0.76 0.064 0  -0.72 0.064 0  -0.6799999999999999 0.064 0  -0.64 0.064 0  -0.6 0.064 0  -0.5600000000000001 0.064 0  -0.52 0.064 0  -0.48 0.064 0  -0.4399999999999999 0.064 0  -0.4 0.064 0  -0.36 0.064 0  -0.32 0.064 0  -0.28 0.064 0  -0.24 0.064 0  -0.2 0.064 0  -0.16 0.064 0  -0.12 0.064 0  -0.07999999999999996 0.064 0  -0.04000000000000004 0.064 0  0 0.064 0  0.04000000000000004 0.064 0  0.08000000000000007 0.064 0  0.1200000000000001 0.064 0  0.1599999999999999 0.064 0  0.2 0.064 0  0.24 0.064 0  0.28 0.064 0  0.3200000000000001 0.064 0  0.3600000000000001 0.064 0  0.3999999999999999 0.064 0  0.4399999999999999 0.064 0  0.48 0.064 0  0.52 0.064 0  0.5600000000000001 0.064 0  0.6000000000000001 0.064 0  0.6399999999999999 0.064 0  0.6799999999999999 0.064 0  0.72 0.064 0  0.76 0.064 0  0.8 0.064 0  0.8400000000000001 0.064 0  0.8799999999999999 0.064 0  0.9199999999999999 0.064 0  0.96 0.064 0  1 0.064 0  -1 0.08 0  -0.96 0.08 0  -0.92 0.08 0  -0.88 0.08 0  -0.84 0.08 0  -0.8 0.08 0  -0.76 0.08 0  -0.72 0.08 0  -0.6799999999999999 0.08 0  -0.64 0.08 0  -0.6 0.08 0  -0.5600000000000001 0.08 0  -0.52 0.08 0  -0.48 0.08 0  -0.4399999999999999 0.08 0  -0.4 0.08 0  -0.36 0.08 0  -0.32 0.08 0  -0.28 0.08 0  -0.24 0.08 0  -0.2 0.08 0  -0.16 0.08 0  -0.12 0.08 0  -0.07999999999999996 0.08 0  -0.04000000000000004 0.08 0  0 0.08 0  0.04000000000000004 0.08 0  0.08000000000000007 0.08 0  0.1200000000000001 0.08 0  0.1599999999999999 0.08 0  0.2 0.08 0  0.24 0.08 0  0.28 0.08 0  0.3200000000000001 0.08 0  0.3600000000000001 0.08 0  0.3999999999999999 0.08 0  0.4399999999999999 0.08 0  0.48 0.08 0  0.52 0.08 0  0.5600000000000001 0.08 0  0.6000000000000001 0.08 0  0.6399999999999999 0.08 0  0.6799999999999999 0.08 0  0.72 0.08 0  0.76 0.08 0  0.8 0.08 0  0.8400000000000001 0.08 0  0.8799999999999999 0.08 0  0.9199999999999999 0.08 0  0.96 0.08 0  1 0.08 0  -1 0.09600000000000002 0  -0.96 0.09600000000000002 0  -0.92 0.09600000000000002 0  -0.88 0.09600000000000002 0  -0.84 0.09600000000000002 0  -0.8 0.09600000000000002 0  -0.76 0.09600000000000002 0  -0.72 0.09600000000000002 0  -0.6799999999999999 0.09600000000000002 0  -0.64 0.09600000000000002 0  -0.6 0.09600000000000002 0  -0.5600000000000001 0.09600000000000002 0  -0.52 0.09600000000000002 0  -0.48 0.09600000000000002 0  -0.4399999999999999 0.09600000000000002 0  -0.4 0.09600000000000002 0  -0.36 0.09600000000000002 0  -0.32 0.09600000000000002 0  -0.28 0.09600000000000002 0  -0.24 0.09600000000000002 0  -0.2 0.09600000000000002 0  -0.16 0.09600000000000002 0  -0.12 0.09600000000000002 0  -0.07999999999999996 0.09600000000000002 0  -0.04000000000000004 0.09600000000000002 0  0 0.09600000000000002 0  0.04000000000000004 0.09600000000000002 0  0.08000000000000007 0.09600000000000002 0  0.1200000000000001 0.09600000000000002 0  0.1599999999999999 0.09600000000000002 0  0.2 0.09600000000000002 0  0.24 0.09600000000000002 0  0.28 0.09600000000000002 0  0.3200000000000001 0.09600000000000002 0  0.3600000000000001 0.09600000000000002 0  0.3999999999999999 0.09600000000000002 0  0.4399999999999999 0.09600000000000002 0  0.48 0.09600000000000002 0  0.52 0.09600000000000002 0  0.5600000000000001 0.09600000000000002 0  0.6000000000000001 0.09600000000000002 0  0.6399999999999999 0.09600000000000002 0  0.6799999999999999 0.09600000000000002 0  0.72 0.09600000000000002 0  0.76 0.09600000000000002 0  0.8 0.09600000000000002 0  0.8400000000000001 0.09600000000000002 0  0.8799999999999999 0.09600000000000002 0  0.9199999999999999 0.09600000000000002 0  0.96 0.09600000000000002 0  1 0.09600000000000002 0  -1 0.112 0  -0.96 0.112 0  -0.92 0.112 0  -0.88 0.112 0  -0.84 0.112 0  -0.8 0.112 0  -0.76 0.112 0  -0.72 0.112 0  -0.6799999999999999 0.112 0  -0.64 0.112 0  -0.6 0.112 0  -0.5600000000000001 0.112 0  -0.52 0.112 0  -0.48 0.112 0  -0.4399999999999999 0.112 0  -0.4 0.112 0  -0.36 0.112 0  -0.32 0.112 0  -0.28 0.112 0  -0.24 0.112 0  -0.2 0.112 0  -0.16 0.112 0  -0.12 0.112 0  -0.07999999999999996 0.112 0  -0.04000000000000004 0.112 0  0 0.112 0  0.04000000000000004 0.112 0  0.08000000000000007 0.112 0  0.1200000000000001 0.112 0  0.1599999999999999 0.112 0  0.2 0.112 0  0.24 0.112 0  0.28 0.112 0  0.3200000000000001 0.112 0  0.3600000000000001 0.112 0  0.3999999999999999 0.112 0  0.4399999999999999 0.112 0  0.48 0.112 0  0.52 0.112 0  0.5600000000000001 0.112 0  0.6000000000000001 0.112 0  0.6399999999999999 0.112 0  0.6799999999999999 0.112 0  0.72 0.112 0  0.76 0.112 0  0.8 0.112 0  0.8400000000000001 0.112 0  0.8799999999999999 0.112 0  0.9199999999999999 0.112 0  0.96 0.112 0  1 0.112 0  -1 0.128 0  -0.96 0.128 0  -0.92 0.128 0  -0.88 0.128 0  -0.84 0.128 0  -0.8 0.128 0  -0.76 0.128 0  -0.72 0.128 0  -0.6799999999999999 0.128 0  -0.64 0.128 0  -0.6 0.128 0  -0.5600000000000001 0.128 0  -0.52 0.128 0  -0.48 0.128 0  -0.4399999999999999 0.128 0  -0.4 0.128 0  -0.36 0.128 0  -0.32 0.128 0  -0.28 0.128 0  -0.24 0.128 0  -0.2 0.128 0  -0.16 0.128 0  -0.12 0.128 0  -0.07999999999999996 0.128 0  -0.04000000000000004 0.128 0  0 0.128 0  0.04000000000000004 0.128 0  0.08000000000000007 0.128 0  0.1200000000000001 0.128 0  0.1599
[...]
<PointData  Scalars="f_100"> 
<DataArray  type="Float64"  Name="f_100"  format="ascii">6.0000000000000002e-05  5.4052882252847395e-05  5.2355651065480827e-05  5.1206575209168095e-05  4.9933536551359764e-05  4.8312223635815176e-05  4.6299454893399504e-05  4.3953545349032965e-05  4.1397518629525634e-05  3.8787280491952141e-05  3.6279543174173814e-05  3.4004373888664144e-05  3.2047765308346359e-05  3.0446193395681976e-05  2.9191164961164356e-05  2.8239124950842176e-05  2.7520222417607688e-05  2.6927449666780622e-05  2.6205260217655048e-05  2.1559738004047683e-05  1.5844313146067937e-05  1.3078139421195023e-05  1.0995385467248368e-05  9.2348498987043041e-06  7.6675100447622876e-06  6.2482829750359063e-06  4.9718788431205737e-06  3.8502042778677100e-06  2.9002252303519549e-06  2.1466314576009716e-06  1.6656104137028486e-06  1.8330454864451483e-06  2.2389526741285264e-06  1.8230364204564899e-06  1.2865408883519439e-06  8.4394707240410253e-07  5.2835949832094484e-07  3.1908598943572655e-07  1.8680537355930069e-07  1.0630185405284553e-07  5.8901833149811756e-08  3.1823284740233638e-08  1.6784063434649458e-08  8.6506016467823754e-09  4.3613704320317759e-09  2.1529428232242011e-09  1.0414681649422007e-09  4.9390203547116051e-10  2.2852164034594386e-10  9.5888866469832044e-11  0.0000000000000000e+00  6.0000000000000002e-05  5.4327403276625930e-05  5.2622583530541269e-05  5.1468528326845302e-05  5.0190911356498357e-05  4.8563573490060639e-05  4.6542645955386209e-05  4.4186383063055092e-05  4.1618198204362774e-05  3.8994706418106357e-05  3.6473486482680943e-05  3.4185453143010141e-05  3.2217280195514875e-05  3.0605872351760079e-05  2.9342896035095122e-05  2.8384724667338975e-05  2.7661278469361483e-05  2.7065387979411059e-05  2.6328439750729801e-05  2.2118012315861829e-05  1.6633814313766257e-05  1.3738837518011202e-05  1.1552758255964447e-05  9.7079548905056784e-06  8.0667708403528524e-06  6.5803330028341542e-06  5.2422277628368187e-06  4.0646300027196995e-06  3.0652470269934384e-06  2.2691863633242883e-06  1.7517842084656803e-06  1.8574688634172813e-06  2.2520936941576610e-06  1.8355089480564532e-06  1.2956736432921177e-06  8.5008523913195836e-07  5.3228045094269303e-07  3.2149688754597515e-07  1.8824030741660542e-07  1.0713101331035851e-07  5.9367876964545275e-08  3.2078456020076194e-08  1.6920331457396609e-08  8.7216580804568361e-09  4.3975878081779303e-09  2.1710048246916770e-09  1.0502900826663549e-09  4.9812634624667654e-10  2.3050978862400863e-10  9.6829849085631443e-11  0.0000000000000000e+00  6.0000000000000002e-05  5.4597864418720955e-05  5.2888685448017924e-05  5.1731111691416759e-05  5.0449366222134735e-05  4.8816129337594361e-05  4.6787060208130159e-05  4.4420420006823861e-05  4.1840033713594232e-05  3.9203233919458311e-05  3.6668470708268948e-05  3.4367510441882459e-05  3.2387711868560078e-05  3.0766411731033873e-05  2.9495438556733299e-05  2.8531096929004054e-05  2.7803091306678175e-05  2.7204200373546805e-05  2.6456012402421618e-05  2.2629004184828146e-05  1.7416490962826032e-05  1.4397671693105258e-05  1.2114357289333483e-05  1.0188079286355792e-05  8.4742093258736484e-06  6.9207650149357726e-06  5.5205410676752656e-06  4.2861977779045876e-06  3.2363493034582974e-06  2.3966254470426271e-06  1.8412167631282545e-06  1.8894582789482902e-06  2.2680096719580215e-06  1.8489131651675965e-06  1.3051197449262615e-06  8.5634274720640077e-07  5.3625540049004048e-07  3.2393595327999755e-07  1.8969111352589085e-07  1.0796934304932363e-07  5.9839200349026671e-08  3.2336616988711540e-08  1.7058256143170490e-08  8.7936113404490585e-09  4.4342794175651074e-09  2.1893119056623052e-09  1.0592358809074525e-09  5.0241197079294434e-10  2.3252755895465589e-10  9.7781315050085257e-11  0.0000000000000000e+00  6.0000000000000002e-05  5.4863468580507688e-05  5.3153917345050465e-05  5.1994320541181567e-05  5.0708906397190020e-05  4.9069899832458851e-05  4.7032707241799101e-05  4.4655665486788945e-05  4.2063033428643419e-05  3.9412869797033485e-05  3.6864501049256845e-05  3.4550549519416156e-05  3.2559062925859427e-05  3.0927813407774300e-05  2.9648794070653671e-05  2.8678243228568961e-05  2.7945662212309261e-05  2.7343878663926292e-05  2.6587702228384516e-05  2.3099091272267071e-05  1.8172869185787738e-05  1.5051157086876573e-05  1.2678679926343324e-05  1.0674457049038737e-05  8.8894624139481671e-06  7.2694516628757480e-06  5.8068253005274643e-06  4.5149823112264050e-06  3.4136356384326679e-06  2.5290712044305814e-06  1.9342074094297525e-06  1.9281615638153281e-06  2.2867456281754180e-06  1.8632640482984618e-06  1.3148832247247532e-06  8.6271987435372658e-07  5.4028375589462199e-07  3.2640254400596933e-07  1.9115728914048257e-07  1.0881649370756705e-07  6.0315575796348033e-08  3.2597626447049979e-08  1.7197753221180833e-08  8.8664128369683070e-09  4.4714181100928592e-09  2.2078493303145372e-09  1.0682977744631553e-09  5.0675489044621845e-10  2.3457288221857042e-10  9.8741986428123542e-11  0.0000000000000000e+00  6.0000000000000002e-05  5.5123656825399531e-05  5.3418255791773182e-05  5.2258153895735565e-05  5.0969537953428473e-05  4.9324893471588541e-05  4.7279596189146614e-05  4.4892128335300337e-05  4.2287205276239227e-05  3.9623620711278292e-05  3.7061582786361239e-05  3.4734574388319110e-05  3.2731336383558034e-05  3.1090079744613889e-05  2.9802964616427476e-05  2.8826165511918673e-05  2.8088992853972640e-05  2.7484417560292403e-05  2.6723230820005834e-05  2.3533951609967041e-05  1.8893565339167821e-05  1.5696779907521963e-05  1.3244419635376917e-05  1.1166406607397858e-05  9.3122158665544628e-06  7.6263012709218640e-06  6.1011188311796033e-06  4.7510898627386441e-06  3.5972402231667642e-06  2.6666690471359063e-06  2.0310206000506694e-06  1.9729601799879120e-06  2.3083378782430459e-06  1.8785729550097705e-06  1.3249669573581220e-06  8.6921675354981096e-07  5.4436503059342686e-07  3.2889614814962132e-07  1.9263843613127976e-07  1.0967218850283593e-07  6.0796822975600281e-08  3.2861372336391503e-08  1.7338755737220610e-08  8.9400239286204015e-09  4.5089822781002123e-09  2.2266053639670172e-09  1.0774695607615934e-09  5.1115190232176200e-10  2.3664410977255938e-10  9.9710901661716334e-11  0.0000000000000000e+00  6.0000000000000002e-05  5.5378064999388038e-05  5.3681691322263836e-05  5.2522614391396668e-05  5.1231267804394266e-05  4.9581118678549388e-05  4.7527735828509683e-05  4.5129817006343202e-05  4.2512556908373206e-05  3.9835493215040268e-05  3.7259721275652469e-05  3.4919589297353301e-05  3.2904535607448600e-05  3.1253213510890046e-05  2.9957952644715196e-05  2.8974866099560720e-05  2.8233085203757853e-05  2.7625813834505186e-05  2.6862324698769216e-05  2.3938565082211635e-05  1.9575059856900711e-05  1.6332522339994194e-05  1.3810409886549161e-05  1.1663311772713930e-05  9.7421955445466730e-06  7.9912529841603253e-06  6.4034876947530151e-06  4.9946532565063144e-06  3.7873221291515950e-06  2.8095834354632054e-06  2.1318960323243144e-06  2.0234081726767577e-06  2.3328138040695524e-06  1.8948477003704053e-06  1.3353726931627924e-06  8.7583335082578121e-07  5.4849881060468226e-07  3.3141635800584660e-07  1.9413424109674544e-07  1.1053620995589523e-07  6.1282800062473242e-08  3.3127766388813635e-08  1.7481210870138789e-08  9.0144140892251687e-09  4.5469548324013840e-09  2.2455707171457844e-09  1.0867463259302720e-09  5.1560046744419925e-10  2.3873993524669707e-10  1.0068735504212143e-10  0.0000000000000000e+00  6.0000000000000002e-05  5.5626487732709396e-05  5.3944226975739565e-05  5.2787708148414753e-05  5.1494103720837846e-05  4.9838583872488843e-05  4.7777134668584566e-05  4.5368739654226630e-05  4.2739095759651055e-05  4.0048493780403440e-05  3.7458921942432058e-05  3.5105598696066136e-05  3.3078664256730496e-05  3.1417217815380330e-05  3.0113760948263685e-05  2.9124347622189326e-05  2.8377941473703054e-05  2.7768065654067370e-05  2.7004720508359451e-05  2.4317258278230831e-05  2.0217166454031663e-05  1.6956727271593851e-05  1.4375611251473040e-05  1.2164617426756422e-05  1.0179166246593669e-05  8.3642765547458210e-06  6.7140250424071133e-06  5.2458304080747125e-06  3.9840631172583836e-06  2.9579964575807707e-06  2.2370574146209400e-06  2.0791882739227459e-06  2.3601920359098628e-06  1.9120926134324320e-06  1.3461010848869899e-06  8.8256944694102708e-07  5.5268472832888595e-07  3.3396284746736135e-07  1.9564445908826946e-07  1.1140838887307854e-07  6.1773396657535835e-08  3.3396739760449554e-08  1.7625077335016796e-08  9.0895594134609442e-09  4.5853223681066763e-09  2.2647380929640398e-09  1.0961242056272574e-09  5.2009858724058836e-10  2.4085933098036944e-10  1.0167084735164660e-10  0.0000000000000000e+00  6.0000000000000002e-05  5.5868848616674335e-05  5.4205877275758236e-05  5.3053444659477996e-05  5.1758054342267795e-05  5.0097297524596850e-05  4.8027801018111716e-05  4.5608904198236590e-05  4.2966829094305405e-05  4.0262628820523201e-05  3.7659190275929649e-05  3.5292607205540724e-05  3.3253726237580274e-05  3.1582096050896285e-05  3.0270392605164165e-05  2.9274612967828271e-05  2.8523564064303730e-05  2.7911172055492074e-05  2.7150168476557913e-05  2.4673768991618100e-05  2.0821523844550134e-05  1.7568083828029389e-05  1.4939114390035772e-05  1.2669832465487626e-05  1.0622934556225023e-05  8.7453746807066269e-06  7.0328526446917885e-06  5.5048048742233125e-06  4.1876674762626936e-06  3.1121078260243573e-06  2.3467198450786845e-06  2.1400802632044853e-06  2.3904828506536512e-06  1.9303085780203889e-06  1.3571517105319342e-06  8.8942462254006171e-07  5.5692244113139832e-07  3.3653535380362785e-07  1.9716890029963663e-07  1.1228859534094222e-07  6.2268528001778473e-08  3.3668239467131432e-08  1.7770323264923699e-08  9.1654413987024710e-09  4.6240744850464178e-09  2.2841018186111537e-09  1.1056001904295934e-09  5.2464470309789501e-10  2.4300149635143143e-10  1.0266104566137174e-10  0.0000000000000000e+00  6.0000000000000002e-05  5.6105175545083345e-05  5.4466667510537706e-05  5.3319836691769805e-05  5.2023129184403314e-05  5.0357268203995619e-05  4.8279743043053616e-05  4.5850318375729680e-05  4.3195764044728780e-05  4.0477904707392205e-05  3.7860531824724369e-05  3.5480619594142627e-05  3.3429725664824781e-05  3.1747851848647474e-05  3.0427850932195639e-05  2.9425665238486036e-05  2.8669955523377974e-05  2.8055132534279824e-05  2.7298434538577103e-05  2.5011316835281794e-05  2.1390703845175749e-05  1.8165639691339446e-05  1.5500148336502211e-05  1.3178536268077448e-05  1.1073353817580703e-05  9.1345867842194646e-06  7.3601235970465165e-06  5.7717875970396320e-06  4.3983630507995141e-06  3.2721357242030613e-06  2.4610959593830417e-06  2.2059381180803054e-06  2.4236886578376000e-06  1.9494930619213206e-06  1.3685230937649084e-06  8.9639824645665896e-07  5.6121161392590697e-07  3.3913366277816386e-07  1.9870741918714647e-07  1.1317673136711367e-07  6.2768130252104870e-08  3.3942225475003804e-08  1.7916924483032089e-08  9.2420459519844161e-09  4.6632032341308638e-09  2.3036575453132252e-09  1.1151719674736565e-09  5.2923761467527438e-10  2.4516581576740530e-10  1.0365775063286071e-10  0.0000000000000000e+00  6.0000000000000002e-05  5.6335580373485431e-05  5.4726633212701969e-05  5.3586900196847211e-05  5.2289338642403941e-05  5.0618504614656093e-05  4.8532968813397991e-05  4.6092989785704581e-05  4.3425907643051353e-05  4.0694327786295923e-05  3.8062952192803686e-05  3.5669640757413301e-05  3.3606666830305082e-05  3.1914489040654313e-05  3.0586139446463804e-05  2.9577507714626212e-05  2.8817118513243912e-05  2.8199946731363741e-05  2.7449301440744549e-05  2.5332672579531688e-05  2.1927690620241383e-05  1.8748805662042926e-05  1.6058089900302444e-05  1.3690386750638260e-05  1.1530330237902904e-05  9.5319936292252829e-06  7.6960257606018516e-06  6.0470193819961469e-06  4.6164029920334157e-06  3.4383181878523614e-06  2.5804010631269169e-06  2.2766734903720761e-06  2.4598044894746440e-06  1.9696401381743248e-06  1.3802127231042486e-06  9.0348946687016311e-07  5.6555190511267746e-07  3.4175759651951953e-07  2.0025990558339865e-07  1.1407272486802307e-07  6.3272156622845848e-08  3.4218668325755806e-08  1.8064863093115291e-08  9.3193625804512228e-09  4.7027026662866514e-09  2.3234020040306062e-09  1.1248377915879716e-09  5.3387641346565966e-10  2.4735182450581505e-10  1.0466086996848664e-10  0.0000000000000000e+00  6.0000000000000002e-05  5.6560242186917324e-05  5.4985819763913885e-05  5.3854654224097466e-05  5.2556693989828328e-05  5.0881015624674822e-05  4.8787486341347395e-05  4.6336925924527316e-05  4.3657266847013818e-05  4.0911904387575193e-05  3.8266457036180368e-05  3.5859675701404155e-05  3.3784554176764550e-05  3.2082011628790645e-05  3.0745261833862085e-05  2.9730143826058964e-05  2.8965055784586831e-05  2.8345614198707509e-05  2.7602569080285653e-05  2.5640222473579135e-05  2.2435582927835411e-05  1.9317344343967628e-05  1.6612472374069239e-05  1.4205128956322868e-05  1.1993829572032723e-05  9.9377224496815618e-06  8.0407856794849988e-06  6.3307738530624055e-06  4.8420679715735918e-06  3.6109148448378813e-06  2.7048574639729915e-06  2.3522437502443950e-06  2.4988184404131142e-06  1.9907405017109081e-06  1.3922170708503640e-06  9.1069720505514782e-07  5.6994295533662000e-07  3.4440700366553928e-07  2.0182627744673629e-07  1.1497652475866149e-07  6.3780574234808475e-08  3.4497547198196253e-08  1.8214126329691885e-08  9.3973837313393551e-09  4.7425684649340590e-09  2.3433328065212435e-09  1.1345963804167718e-09  5.3856042875503011e-10  2.4955918093045156e-10  1.0567039689828330e-10  0.0000000000000000e+00  6.0000000000000002e-05  5.6779393581947300e-05  5.5244282070654548e-05  5.4123120834626000e-05  5.2825207373329693e-05  5.1144810289025056e-05  4.9043303612349337e-05  4.6582134215189807e-05  4.3889848561160716e-05  4.1130640836198859e-05  3.8471052059996232e-05  3.6050729528864682e-05  3.3963392276296746e-05  3.2250423759286258e-05  3.0905221923142396e-05  2.9883577128107967e-05  2.9113770155729315e-05  2.8492134229291749e-05  2.7758054283593128e-05  2.5936025943725843e-05  2.2917429879995822e-05  1.9871345157960322e-05  1.7162992675734526e-05  1.4722603603627910e-05  1.2463884085024824e-05  1.0351952403986117e-05  8.3946728289236500e-06  6.6233607404607066e-06  5.0756687142043697e-06  3.7902089133179501e-06  2.8346981944462269e-06  2.4326433407236002e-06  2.5407120266805138e-06  2.0127814841599145e-06  1.4045316125519131e-06  9.1802015149709047e-07  5.7438437862188125e-07  3.4708175138610769e-07  2.0340647495298349e-07  1.1588809694402585e-07  6.4293361542320353e-08  3.4778848325911995e-08  1.8364705619886161e-08  9.4761042538016618e-09  4.7827976464909772e-09  2.3634482833226000e-09  1.1444468290558063e-09  5.4328918365939353e-10  2.5178764388626946e-10  1.0668639279079072e-10  0.0000000000000000e+00  6.0000000000000002e-05  5.6993309465418130e-05  5.5502084273215086e-05  5.4392325013243244e-05  5.3094891803137837e-05  5.1409897866714058e-05  4.9300428610169274e-05  4.6828622031237024e-05  4.4123659654195875e-05  4.1350543459555362e-05  3.8676743016048895e-05  3.6242807427797152e-05  3.4143185812555895e-05  3.2419729701724428e-05  3.1066023664597250e-05  3.0037811282111227e-05  2.9263264496282634e-05  2.8639505739003107e-05  2.7915590181162384e-05  2.6221866271132100e-05  2.3376146181420299e-05  2.0411190830859898e-05  1.7709516512975049e-05  1.5242755275726813e-05  1.2940599617899752e-05  1.0774920248322207e-05  8.7580041101069537e-06  6.9251294190393727e-06  5.3175487688236728e-06  3.9765094011354529e-06  2.9701702848311512e-06  2.5178975403168158e-06  2.5854604431430281e-06  2.0357470692410192e-06  1.4171508476441847e-06  9.2545676417378304e-07  5.7887575551520939e-07  3.4978171895975406e-07  2.0500045568901213e-07  1.1680742104829712e-07  6.4810506232369624e-08  3.5062563705451010e-08  1.8516595817881745e-08  9.5555209599880884e-09  4.8233883162575336e-09  2.3837473517707382e-09  1.1543885405542370e-09  5.4806235935174366e-10  2.5403705429967172e-10  1.0770897313902475e-10  0.0000000000000000e+00  6.0000000000000002e-05  5.7202297953233082e-05  5.5759299461862926e-05  5.4662294576827313e-05  5.3365761139409870e-05  5.1676287833127996e-05  4.9558869337000521e-05  4.7076396716298153e-05  4.4358706973190396e-05  4.1571618593797014e-05  3.8883535700684631e-05  3.6435914661972511e-05  3.4323939566071141e-05  3.2589933831738793e-05  3.1227671112531322e-05  3.0192850039481402e-05  2.9413541714367609e-05  2.8787727189954995e-05  2.8075025301288464e-05  2.6499294505685130e-05  2.3814474253279130e-05  2.0937520375572951e-05  1.8252081464740506e-05  1.5765640085854544e-05  1.3424162652527003e-05  1.1206926163577851e-05  9.1311485415417897e-06  7.2364726498054304e-06  5.5680874723570095e-06  4.1701534736620354e-06  3.1115377151587741e-06  2.6080579842739187e-06  2.6330327109403098e-06  2.0596179108457722e-06  1.4300683217709004e-06  9.3300526882525610e-07  5.8341662793253284e-07  3.5250679263699957e-07  2.0660819075094822e-07  1.1773448774753056e-07  6.5332003509238792e-08  3.5348690041465719e-08  1.8669794580027054e-08  9.6356322669553303e-09  4.8643394693703750e-09  2.4042294084492892e-09  1.1644211693133192e-09  5.5287976594256295e-10  2.5630732019284415e-10  1.0873829630689347e-10  0.0000000000000000e+00  6.0000000000000002e-05  5.7406693020366949e-05  5.6016009382993020e-05  5.4933060077801563e-05  5.3637830074557011e-05  5.1943989888221807e-05  4.9818633829434735e-05  4.7325465599992519e-05  4.4594997355210315e-05  4.1793872589008263e-05  3.9091435953007149e-05  3.6630056563070667e-05  3.4505658402119008e-05  3.2761040616752752e-05  3.1390168410845012e-05  3.0348697228688563e-05  2.9564604746758038e-05  2.8936796546534832e-05  2.8236222475518204e-05  2.6769667195945313e-05  2.4234973624845330e-05  2.1451192419778338e-05  1.8790898107003258e-05  1.6291432747402471e-05  1.3914847312672205e-05  1.1648339693815050e-05  9.5145321152959676e-06  7.5578304963303348e-06  5.8277030809967480e-06  4.3715089714323121e-06  3.2590841487634735e-06  2.7031994756297526e-06  2.6833917110248461e-06  2.0843713556492375e-06  1.4432766511956131e-06  9.4066366105440127e-07  5.8800649545431086e-07  3.5525686157042371e-07  2.0822966158520680e-07  1.1866929659591953e-07  6.5857854693781625e-08  3.5637227885031890e-08  1.8824301854502974e-08  9.7164379043646000e-09  4.9056508284161246e-09  2.4248942414973741e-09  1.1745445749628250e-09  5.5774131876287360e-10  2.5859840446842478e-10  1.0977455453135821e-10  0.0000000000000000e+00  6.0000000000000002e-05  5.7606848610113532e-05  5.6272304124564609e-05  5.5204654701822238e-05  5.3911114111675532e-05  5.2213013961108999e-05  5.0079730170975887e-05  4.7575836010846214e-05  4.4832537636829893e-05  4.2017311813419270e-05  3.9300449653357917e-05  3.6825238524164613e-05  3.4688347260702911e-05  3.2933054604219134e-05  3.1553519781171725e-05  3.0505356744640593e-05  2.9716456551429510e-05  2.9086711257007527e-05  2.8399057625616088e-05  2.7034178646648854e-05  2.4640025831883319e-05  2.1953251449643352e-05  1.9326349479446082e-05  1.6820433038612210e-05  1.4413022263795725e-05  1.2099605767830888e-05  9.9086427969759413e-06  7.8896943983898700e-06  6.0968560539358695e-06  4.5809770672935026e-06  3.4131155282161721e-06  2.8034177464854434e-06  2.7364941037942720e-06  2.1099814719048950e-06  1.4567675496202302e-06  9.4842971011664447e-07  5.9264481285714406e-07  3.5803181462996032e-07  2.0986485743945511e-07  1.1961185425551929e-07  6.6388066079338704e-08  3.5928180929330391e-08  1.8980119464230141e-08  9.7979386756834739e-09  4.9473227108394846e-09  2.4457419590481603e-09  1.1847587847432636e-09  5.6264701903064160e-10  2.6091031494053744e-10  1.1081796676570816e-10  0.0000000000000000e+00  6.0000000000000002e-05  5.7803133958162388e-05  5.6528281774797409e-05  5.5477114159050442e-05  5.4185629539226667e-05  5.2483370211522339e-05  5.0342166501665469e-05  4.7827515286744942e-05  4.5071334661914137e-05  4.2241942656845497e-05  3.9510582722029111e-05  3.7021465994314977e-05  3.4872011148265681e-05  3.310598041191163