<?xml version="1.0"?>
<VTKFile type="UnstructuredGrid"  version="0.1"  >
<UnstructuredGrid>
<Piece  NumberOfPoints="2601" NumberOfCells="5000">
<Points>
<DataArray  type="Float64"  NumberOfComponents="3"  format="ascii">-1 0 0  -0.96 0 0  -0.92 0 0  -0.88 0 0  -0.84 0 0  -0.8 0 0  -0.76 0 0  -0.72 0 0  -0.6799999999999999 0 0  -0.64 0 0  -0.6 0 0  -0.5600000000000001 0 0  -0.52 0 0  -0.48 0 0  -0.4399999999999999 0 0  -0.4 0 0  -0.36 0 0  -0.32 0 0  -0.28 0 0  -0.24 0 0  -0.2 0 0  -0.16 0 0  -0.12 0 0  -0.07999999999999996 0 0  -0.04000000000000004 0 0  0 0 0  0.04000000000000004 0 0  0.08000000000000007 0 0  0.1200000000000001 0 0  0.1599999999999999 0 0  0.2 0 0  0.24 0 0  0.28 0 0  0.3200000000000001 0 0  0.3600000000000001 0 0  0.3999999999999999 0 0  0.4399999999999999 0 0  0.48 0 0  0.52 0 0  0.5600000000000001 0 0  0.6000000000000001 0 0  0.6399999999999999 0 0  0.6799999999999999 0 0  0.72 0 0  0.76 0 0  0.8 0 0  0.8400000000000001 0 0  0.8799999999999999 0 0  0.9199999999999999 0 0  0.96 0 0  1 0 0  -1 0.016 0  -0.96 0.016 0  -0.92 0.016 0  -0.88 0.016 0  -0.84 0.016 0  -0.8 0.016 0  -0.76 0.016 0  -0.72 0.016 0  -0.6799999999999999 0.016 0  -0.64 0.016 0  -0.6 0.016 0  -0.5600000000000001 0.016 0  -0.52 0.016 0  -0.48 0.016 0  -0.4399999999999999 0.016 0  -0.4 0.016 0  -0.36 0.016 0  -0.32 0.016 0  -0.28 0.016 0  -0.24 0.016 0  -0.2 0.016 0  -0.16 0.016 0  -0.12 0.016 0  -0.07999999999999996 0.016 0  -0.04000000000000004 0.016 0  0 0.016 0  0.04000000000000004 0.016 0  0.08000000000000007 0.016 0  0.1200000000000001 0.016 0  0.1599999999999999 0.016 0  0.2 0.016 0  0.24 0.016 0  0.28 0.016 0  0.3200000000000001 0.016 0  0.3600000000000001 0.016 0  0.3999999999999999 0.016 0  0.4399999999999999 0.016 0  0.48 0.016 0  0.52 0.016 0  0.5600000000000001 0.016 0  0.6000000000000001 0.016 0  0.6399999999999999 0.016 0  0.6799999999999999 0.016 0  0.72 0.016 0  0.76 0.016 0  0.8 0.016 0  0.8400000000000001 0.016 0  0.8799999999999999 0.016 0  0.9199999999999999 0.016 0  0.96 0.016 0  1 0.016 0  -1 0.032 0  -0.96 0.032 0  -0.92 0.032 0  -0.88 0.032 0  -0.84 0.032 0  -0.8 0.032 0  -0.76 0.032 0  -0.72 0.032 0  -0.6799999999999999 0.032 0  -0.64 0.032 0  -0.6 0.032 0  -0.5600000000000001 0.032 0  -0.52 0.032 0  -0.48 0.032 0  -0.4399999999999999 0.032 0  -0.4 0.032 0  -0.36 0.032 0  -0.32 0.032 0  -0.28 0.032 0  -0.24 0.032 0  -0.2 0.032 0  -0.16 0.032 0  -0.12 0.032 0  -0.07999999999999996 0.032 0  -0.04000000000000004 0.032 0  0 0.032 0  0.04000000000000004 0.032 0  0.08000000000000007 0.032 0  0.1200000000000001 0.032 0  0.1599999999999999 0.032 0  0.2 0.032 0  0.24 0.032 0  0.28 0.032 0  0.3200000000000001 0.032 0  0.3600000000000001 0.032 0  0.3999999999999999 0.032 0  0.4399999999999999 0.032 0  0.48 0.032 0  0.52 0.032 0  0.5600000000000001 0.032 0  0.6000000000000001 0.032 0  0.6399999999999999 0.032 0  0.6799999999999999 0.032 0  0.72 0.032 0  0.76 0.032 0  0.8 0.032 0  0.8400000000000001 0.032 0  0.8799999999999999 0.032 0  0.9199999999999999 0.032 0  0.96 0.032 0  1 0.032 0  -1 0.04800000000000001 0  -0.96 0.04800000000000001 0  -0.92 0.04800000000000001 0  -0.88 0.04800000000000001 0  -0.84 0.04800000000000001 0  -0.8 0.04800000000000001 0  -0.76 0.04800000000000001 0  -0.72 0.04800000000000001 0  -0.6799999999999999 0.04800000000000001 0  -0.64 0.04800000000000001 0  -0.6 0.04800000000000001 0  -0.5600000000000001 0.04800000000000001 0  -0.52 0.04800000000000001 0  -0.48 0.04800000000000001 0  -0.4399999999999999 0.04800000000000001 0  -0.4 0.04800000000000001 0  -0.36 0.04800000000000001 0  -0.32 0.04800000000000001 0  -0.28 0.04800000000000001 0  -0.24 0.04800000000000001 0  -0.2 0.04800000000000001 0  -0.16 0.04800000000000001 0  -0.12 0.04800000000000001 0  -0.07999999999999996 0.04800000000000001 0  -0.04000000000000004 0.04800000000000001 0  0 0.04800000000000001 0  0.04000000000000004 0.04800000000000001 0  0.08000000000000007 0.04800000000000001 0  0.1200000000000001 0.04800000000000001 0  0.1599999999999999 0.04800000000000001 0  0.2 0.04800000000000001 0  0.24 0.04800000000000001 0  0.28 0.04800000000000001 0  0.3200000000000001 0.04800000000000001 0  0.3600000000000001 0.04800000000000001 0  0.3999999999999999 0.04800000000000001 0  0.4399999999999999 0.04800000000000001 0  0.48 0.04800000000000001 0  0.52 0.04800000000000001 0  0.5600000000000001 0.04800000000000001 0  0.6000000000000001 0.04800000000000001 0  0.6399999999999999 0.04800000000000001 0  0.6799999999999999 0.04800000000000001 0  0.72 0.04800000000000001 0  0.76 0.04800000000000001 0  0.8 0.04800000000000001 0  0.8400000000000001 0.04800000000000001 0  0.8799999999999999 0.04800000000000001 0  0.9199999999999999 0.04800000000000001 0  0.96 0.04800000000000001 0  1 0.04800000000000001 0  -1 0.064 0  -0.96 0.064 0  -0.92 0.064 0  -0.88 0.064 0  -0.84 0.064 0  -0.8 0.064 0  -0.76 0.064 0  -0.72 0.064 0  -0.6799999999999999 0.064 0  -0.64 0.064 0  -0.6 0.064 0  -0.5600000000000001 0.064 0  -0.52 0.064 0  -0.48 0.064 0  -0.4399999999999999 0.064 0  -0.4 0.064 0  -0.36 0.064 0  -0.32 0.064 0  -0.28 0.064 0  -0.24 0.064 0  -0.2 0.064 0  -0.16 0.064 0  -0.12 0.064 0  -0.07999999999999996 0.064 0  -0.04000000000000004 0.064 0  0 0.064 0  0.04000000000000004 0.064 0  0.08000000000000007 0.064 0  0.1200000000000001 0.064 0  0.1599999999999999 0.064 0  0.2 0.064 0  0.24 0.064 0  0.28 0.064 0  0.3200000000000001 0.064 0  0.3600000000000001 0.064 0  0.3999999999999999 0.064 0  0.4399999999999999 0.064 0  0.48 0.064 0  0.52 0.064 0  0.5600000000000001 0.064 0  0.6000000000000001 0.064 0  0.6399999999999999 0.064 0  0.6799999999999999 0.064 0  0.72 0.064 0  0.76 0.064 0  0.8 0.064 0  0.8400000000000001 0.064 0  0.8799999999999999 0.064 0  0.9199999999999999 0.064 0  0.96 0.064 0  1 0.064 0  -1 0.08 0  -0.96 0.08 0  -0.92 0.08 0  -0.88 0.08 0  -0.84 0.08 0  -0.8 0.08 0  -0.76 0.08 0  -0.72 0.08 0  -0.6799999999999999 0.08 0  -0.64 0.08 0  -0.6 0.08 0  -0.5600000000000001 0.08 0  -0.52 0.08 0  -0.48 0.08 0  -0.4399999999999999 0.08 0  -0.4 0.08 0  -0.36 0.08 0  -0.32 0.08 0  -0.28 0.08 0  -0.24 0.08 0  -0.2 0.08 0  -0.16 0.08 0  -0.12 0.08 0  -0.07999999999999996 0.08 0  -0.04000000000000004 0.08 0  0 0.08 0  0.04000000000000004 0.08 0  0.08000000000000007 0.08 0  0.1200000000000001 0.08 0  0.1599999999999999 0.08 0  0.2 0.08 0  0.24 0.08 0  0.28 0.08 0  0.3200000000000001 0.08 0  0.3600000000000001 0.08 0  0.3999999999999999 0.08 0  0.4399999999999999 0.08 0  0.48 0.08 0  0.52 0.08 0  0.5600000000000001 0.08 0  0.6000000000000001 0.08 0  0.6399999999999999 0.08 0  0.6799999999999999 0.08 0  0.72 0.08 0  0.76 0.08 0  0.8 0.08 0  0.8400000000000001 0.08 0  0.8799999999999999 0.08 0  0.9199999999999999 0.08 0  0.96 0.08 0  1 0.08 0  -1 0.09600000000000002 0  -0.96 0.09600000000000002 0  -0.92 0.09600000000000002 0  -0.88 0.09600000000000002 0  -0.84 0.09600000000000002 0  -0.8 0.09600000000000002 0  -0.76 0.09600000000000002 0  -0.72 0.09600000000000002 0  -0.6799999999999999 0.09600000000000002 0  -0.64 0.09600000000000002 0  -0.6 0.09600000000000002 0  -0.5600000000000001 0.09600000000000002 0  -0.52 0.09600000000000002 0  -0.48 0.09600000000000002 0  -0.4399999999999999 0.09600000000000002 0  -0.4 0.09600000000000002 0  -0.36 0.09600000000000002 0  -0.32 0.09600000000000002 0  -0.28 0.09600000000000002 0  -0.24 0.09600000000000002 0  -0.2 0.09600000000000002 0  -0.16 0.09600000000000002 0  -0.12 0.09600000000000002 0  -0.07999999999999996 0.09600000000000002 0  -0.04000000000000004 0.09600000000000002 0  0 0.09600000000000002 0  0.04000000000000004 0.09600000000000002 0  0.08000000000000007 0.09600000000000002 0  0.1200000000000001 0.09600000000000002 0  0.1599999999999999 0.09600000000000002 0  0.2 0.09600000000000002 0  0.24 0.09600000000000002 0  0.28 0.09600000000000002 0  0.3200000000000001 0.09600000000000002 0  0.3600000000000001 0.09600000000000002 0  0.3999999999999999 0.09600000000000002 0  0.4399999999999999 0.09600000000000002 0  0.48 0.09600000000000002 0  0.52 0.09600000000000002 0  0.5600000000000001 0.09600000000000002 0  0.6000000000000001 0.09600000000000002 0  0.6399999999999999 0.09600000000000002 0  0.6799999999999999 0.09600000000000002 0  0.72 0.09600000000000002 0  0.76 0.09600000000000002 0  0.8 0.09600000000000002 0  0.8400000000000001 0.09600000000000002 0  0.8799999999999999 0.09600000000000002 0  0.9199999999999999 0.09600000000000002 0  0.96 0.09600000000000002 0  1 0.09600000000000002 0  -1 0.112 0  -0.96 0.112 0  -0.92 0.112 0  -0.88 0.112 0  -0.84 0.112 0  -0.8 0.112 0  -0.76 0.112 0  -0.72 0.112 0  -0.6799999999999999 0.112 0  -0.64 0.112 0  -0.6 0.112 0  -0.5600000000000001 0.112 0  -0.52 0.112 0  -0.48 0.112 0  -0.4399999999999999 0.112 0  -0.4 0.112 0  -0.36 0.112 0  -0.32 0.112 0  -0.28 0.112 0  -0.24 0.112 0  -0.2 0.112 0  -0.16 0.112 0  -0.12 0.112 0  -0.07999999999999996 0.112 0  -0.04000000000000004 0.112 0  0 0.112 0  0.04000000000000004 0.112 0  0.08000000000000007 0.112 0  0.1200000000000001 0.112 0  0.1599999999999999 0.112 0  0.2 0.112 0  0.24 0.112 0  0.28 0.112 0  0.3200000000000001 0.112 0  0.3600000000000001 0.112 0  0.3999999999999999 0.112 0  0.4399999999999999 0.112 0  0.48 0.112 0  0.52 0.112 0  0.5600000000000001 0.112 0  0.6000000000000001 0.112 0  0.6399999999999999 0.112 0  0.6799999999999999 0.112 0  0.72 0.112 0  0.76 0.112 0  0.8 0.112 0  0.8400000000000001 0.112 0  0.8799999999999999 0.112 0  0.9199999999999999 0.112 0  0.96 0.112 0  1 0.112 0  -1 0.128 0  -0.96 0.128 0  -0.92 0.128 0  -0.88 0.128 0  -0.84 0.128 0  -0.8 0.128 0  -0.76 0.128 0  -0.72 0.128 0  -0.6799999999999999 0.128 0  -0.64 0.128 0  -0.6 0.128 0  -0.5600000000000001 0.128 0  -0.52 0.128 0  -0.48 0.128 0  -0.4399999999999999 0.128 0  -0.4 0.128 0  -0.36 0.128 0  -0.32 0.128 0  -0.28 0.128 0  -0.24 0.128 0  -0.2 0.128 0  -0.16 0.128 0  -0.12 0.128 0  -0.07999999999999996 0.128 0  -0.04000000000000004 0.128 0  0 0.128 0  0.04000000000000004 0.128 0  0.08000000000000007 0.128 0  0.1200000000000001 0.128 0  0.1599
[...]
<PointData  Scalars="f_100"> 
<DataArray  type="Float64"  Name="f_100"  format="ascii">6.0000000000000002e-05  5.4285497049838123e-05  5.3028071030101127e-05  5.2621829497291476e-05  5.2469279189508591e-05  5.2380835895719426e-05  5.2289488917542540e-05  5.2164872951171239e-05  5.1986368529527038e-05  5.1734958918107235e-05  5.1391317157820212e-05  5.0936167589950782e-05  5.0351610772057665e-05  4.9622873899520220e-05  4.8740112656858286e-05  4.7699640683919869e-05  4.6501522523251529e-05  4.5119031915118287e-05  4.3313761194754808e-05  3.5089405679089370e-05  2.5460753986519389e-05  2.0977000525050627e-05  1.7905905769222012e-05  1.5628255112037100e-05  1.3877486080516234e-05  1.2500711041645863e-05  1.1400146096186285e-05  1.0518403462404726e-05  9.8556178334105034e-06  9.5546622315298946e-06  1.0198980373698069e-05  1.4211089023157501e-05  1.9950091462038705e-05  2.0988745063896677e-05  2.0340672961769259e-05  1.9077664436538240e-05  1.7582610976719767e-05  1.5991154496241006e-05  1.4363636944608630e-05  1.2739109339765008e-05  1.1150477555916180e-05  9.6274817798382405e-06  8.1961371969763605e-06  6.8774533209234699e-06  5.6863151795529865e-06  4.6305603217472132e-06  3.7093181082596362e-06  2.9070692008928779e-06  2.1715968676614110e-06  1.3408319460564996e-06  0.0000000000000000e+00  6.0000000000000002e-05  5.4559584945796990e-05  5.3295441260318463e-05  5.2886181596960852e-05  5.2732616242787521e-05  5.2643747830893237e-05  5.2552088037006980e-05  5.2427084044981049e-05  5.2248010448302940e-05  5.1995760372463831e-05  5.1650913427653761e-05  5.1194094603155481e-05  5.0607303454818204e-05  4.9875672386118740e-05  4.8989278443366537e-05  4.7944385048344080e-05  4.6741062017536904e-05  4.5352915320309424e-05  4.3520566208832095e-05  3.6008502480157368e-05  2.6736605208053648e-05  2.2031127958751593e-05  1.8793148908353097e-05  1.6393228280486281e-05  1.4549572006389500e-05  1.3100481317284609e-05  1.1942459689787331e-05  1.1013978869805277e-05  1.0311716652686713e-05  9.9747368032066305e-06  1.0580415046813155e-05  1.4360352538916579e-05  2.0040018160160639e-05  2.1097694845734175e-05  2.0449079065489680e-05  1.9180765252087114e-05  1.7678693492467024e-05  1.6079483170193379e-05  1.4443854032329835e-05  1.2811069465864059e-05  1.1214207923818567e-05  9.6831717827236374e-06  8.2441279832797859e-06  6.9182196896454110e-06  5.7204397694407359e-06  4.6587030543915937e-06  3.7321857564172048e-06  2.9253933175760499e-06  2.1861353464590425e-06  1.3524490151916272e-06  0.0000000000000000e+00  6.0000000000000002e-05  5.4829627435101182e-05  5.3561990799782887e-05  5.3151177081201055e-05  5.2997057867653365e-05  5.2907909622463920e-05  5.2815982242525212e-05  5.2690603386905807e-05  5.2510963016556768e-05  5.2257870626291090e-05  5.1911814185686839e-05  5.1453319599437881e-05  5.0864285196219898e-05  5.0129748241993424e-05  4.9239707035740258e-05  4.8190376868157962e-05  4.6981853322901797e-05  4.5588251283221022e-05  4.3734597388847244e-05  3.6848618186369624e-05  2.8001994994413323e-05  2.3082786805820580e-05  1.9687778944245551e-05  1.7170282252360698e-05  1.5236117681627699e-05  1.3715925054151252e-05  1.2500983262715362e-05  1.1525822248371911e-05  1.0783630301305938e-05  1.0409172791934218e-05  1.0970197980442119e-05  1.4542352128120886e-05  2.0143421533457889e-05  2.1211564918884906e-05  2.0559442113369326e-05  1.9284849630409641e-05  1.7775428620148727e-05  1.6168334633553802e-05  1.4524526048523808e-05  1.2883435434807758e-05  1.1278300769345169e-05  9.7391830248664259e-06  8.2924002714908567e-06  6.9592296013600537e-06  5.7547722294318228e-06  4.6870207889163412e-06  3.7551988031121235e-06  2.9438364780861907e-06  2.2007637049944406e-06  1.3640518702518088e-06  0.0000000000000000e+00  6.0000000000000002e-05  5.5094828646628404e-05  5.3827678973617460e-05  5.3416809124674140e-05  5.3262606488634432e-05  5.3173326635983107e-05  5.3081177874288001e-05  5.2955437684869688e-05  5.2775233132146721e-05  5.2521296722948730e-05  5.2174026613506211e-05  5.1713849895147536e-05  5.1122563434454599e-05  5.0385108998011130e-05  4.9491406002562710e-05  4.8437623607070521e-05  4.7223903088234916e-05  4.5825030139399442e-05  4.3955398395782484e-05  3.7620547931376983e-05  2.9224845821802219e-05  2.4126216905258819e-05  2.0587300369206654e-05  1.7958130894422637e-05  1.5936510927730542e-05  1.4346852167889327e-05  1.3075807324344018e-05  1.2054221568601752e-05  1.1271807112019384e-05  1.0858624541056097e-05  1.1370195655479424e-05  1.4753064916090858e-05  2.0260515859409381e-05  2.1330429543359920e-05  2.0671793100119076e-05  1.9389929811863084e-05  1.7872822432307181e-05  1.6257712806697030e-05  1.4605655979814103e-05  1.2956209650959653e-05  1.1342758011265507e-05  9.7955169731305152e-06  8.3409551056449787e-06  7.0004837165925774e-06  5.7893128851160222e-06  4.7155135629829536e-06  3.7783570153051963e-06  2.9623980969253916e-06  2.2154807711649648e-06  1.3756366315169959e-06  0.0000000000000000e+00  6.0000000000000002e-05  5.5354630413963713e-05  5.4092481331110267e-05  5.3683075031313913e-05  5.3529265840943994e-05  5.3440004659446755e-05  5.3347681406372478e-05  5.3221593678666575e-05  5.3040827678970182e-05  5.2786045661220260e-05  5.2437557820421696e-05  5.1975692706796867e-05  5.1382145481119566e-05  5.0641762034556393e-05  4.9744382743735506e-05  4.8686132552438224e-05  4.7467217801161903e-05  4.6063246397334450e-05  4.4182509494141726e-05  3.8333861794797187e-05  3.0389678874644152e-05  2.5157289160091562e-05  2.1489579837322281e-05  1.8755668894052502e-05  1.6650259100009197e-05  1.4993162679515248e-05  1.3667094361272551e-05  1.2599521320915657e-05  1.1776730308631575e-05  1.1323734078110262e-05  1.1781980311222575e-05  1.4989622855862117e-05  2.0391458055883857e-05  2.1454343954368898e-05  2.0786154909790338e-05  1.9496015349261969e-05  1.7970880102290260e-05  1.6347621288521062e-05  1.4687246693152043e-05  1.3029394487515628e-05  1.1407581592100578e-05  9.8521751618808104e-06  8.3897936346964814e-06  7.0419828318206400e-06  5.8240622220660959e-06  4.7441815923121727e-06  3.8016603564297258e-06  2.9810778257954034e-06  2.2302857334060128e-06  1.3872014444668833e-06  0.0000000000000000e+00  6.0000000000000002e-05  5.5608668978281686e-05  5.4356387532255681e-05  5.3949976007137836e-05  5.3797040903184221e-05  5.3707949884690652e-05  5.3615499444893524e-05  5.3489078145304628e-05  5.3307753536972860e-05  5.3052124409640440e-05  5.2702414862341012e-05  5.2238855174698942e-05  5.1643038549555746e-05  5.0899714614069046e-05  4.9998644526007507e-05  4.8935910850091042e-05  4.7711803798417641e-05  4.6302897476016333e-05  4.4415479733794106e-05  3.8996925935809231e-05  3.1490665512442557e-05  2.6172705472424201e-05  2.2392732997921158e-05  1.9561919153178030e-05  1.7376955269289274e-05  1.5654823495360796e-05  1.4275063053462489e-05  1.3162113457412434e-05  1.2298918300677824e-05  1.1805151450006839e-05  1.2206908807962413e-05  1.5249995457901559e-05  2.0536349043385386e-05  2.1583344681481114e-05  2.0902542732873730e-05  1.9603113268319578e-05  1.8069605966860162e-05  1.6438063385117282e-05  1.4769300949996654e-05  1.3102992291528879e-05  1.1472773475321447e-05  9.9091591828694796e-06  8.4389170957390596e-06  7.0837278570004830e-06  5.8590208588568825e-06  4.7730252402404108e-06  3.8251089524816902e-06  2.9998755128977698e-06  2.2451780836580374e-06  1.3987460893660136e-06  0.0000000000000000e+00  6.0000000000000002e-05  5.5856739058556923e-05  5.4619399859930309e-05  5.4217516975777684e-05  5.4065937841648990e-05  5.3977168892002355e-05  5.3884638726485014e-05  5.3757897903434860e-05  5.3576017590427301e-05  5.3319539918332688e-05  5.2968604757352572e-05  5.2503344382470791e-05  5.1905249778217205e-05  5.1158973907866036e-05  5.0254198512262194e-05  4.9186965533130390e-05  4.7957667277225020e-05  4.6543982697422816e-05  4.4653875466900967e-05  3.9616990097817346e-05  3.2527464752599627e-05  2.7169765189513339e-05  2.3295091261824073e-05  2.0376013534035898e-05  1.8116265266153862e-05  1.6331859491718546e-05  1.4899982470719747e-05  1.3742434721542536e-05  1.2838926859294985e-05  1.2303547160954864e-05  1.2646181809056802e-05  1.5532762581594903e-05  2.0695236759744430e-05  2.1717449786301885e-05  2.1020964415323235e-05  1.9711228200314847e-05  1.8169003577885653e-05  1.6529042133400176e-05  1.4851821417970532e-05  1.3177005388011453e-05  1.1538335643002522e-05  9.9664706768718190e-06  8.4883268001618243e-06  7.1257197970469230e-06  5.8941895248492724e-06  4.8020449926693895e-06  3.8487030641328887e-06  3.0187911694516725e-06  2.2601575706811881e-06  1.4102716600472686e-06  0.0000000000000000e+00  6.0000000000000002e-05  5.6098764085345929e-05  5.4881532174704537e-05  5.4485706424343478e-05  5.4335963963215810e-05  5.4247668637080983e-05  5.4155106116957058e-05  5.4028059816994428e-05  5.3845626734775355e-05  5.3588299128792288e-05  5.3236134498595492e-05  5.2769167373130935e-05  5.2168786249949430e-05  5.1419547018258032e-05  5.0511051785668206e-05  4.9439303545765467e-05  4.8204814306927655e-05  4.6786502493507798e-05  4.4897285994082624e-05  4.0200303835933207e-05  3.3502741437729116e-05  2.8146334867387872e-05  2.4195199675284419e-05  2.1197190560515268e-05  1.8867925914473085e-05  1.7024352403726658e-05  1.5542171754370113e-05  1.4340967488055492e-05  1.3397352273006703e-05  1.2819620300729541e-05  1.3100888848448620e-05  1.5836951545039850e-05  2.0868119918188671e-05  2.1856659042586941e-05  2.1141420755634543e-05  1.9820362493723820e-05  1.8269075745650225e-05  1.6620560320782103e-05  1.4934810680504834e-05  1.3251436083303137e-05  1.1604270093864256e-05  1.0024111326772614e-05  8.5380241222292879e-06  7.1679597365727098e-06  5.9295690418982663e-06  4.8312414374538173e-06  3.8724430637966713e-06  3.0378249421425201e-06  2.2752241617163490e-06  1.4217803003414536e-06  0.0000000000000000e+00  6.0000000000000002e-05  5.6334771589419310e-05  5.5142809174744145e-05  5.4754556270306739e-05  5.4607127674418991e-05  5.4519456439650295e-05  5.4426908610009338e-05  5.4299570798174632e-05  5.4116587882278694e-05  5.3858408981973909e-05  5.3505011064893918e-05  5.3036331162392083e-05  5.2433655007898931e-05  5.1681440996793135e-05  5.0769211369603265e-05  4.9692931763068040e-05  4.8453250840399990e-05  4.7030457792162748e-05  4.5145326996022608e-05  4.0752240191152434e-05  3.4420697853990245e-05  2.9100864871273590e-05  2.5091826312512112e-05  2.2024801706345270e-05  1.9631749284447841e-05  1.7732444021518466e-05  1.6202002865922857e-05  1.4958242579498433e-05  1.3974835058044601e-05  1.3354104439293933e-05  1.3572043139063476e-05  1.6161920230737779e-05  2.1054951924727580e-05  2.2000954080318086e-05  2.1263905763244182e-05  1.9930516310259172e-05  1.8369824575820191e-05  1.6712620501772748e-05  1.5018271244890305e-05  1.3326286667861965e-05  1.1670578841649273e-05  1.0082082851855094e-05  8.5880104896626322e-06  7.2104488273146065e-06  5.9651603092924559e-06  4.8606152474409260e-06  3.8963294167657816e-06  3.0569770904432217e-06  2.2903780108798802e-06  1.4332749885063749e-06  0.0000000000000000e+00  6.0000000000000002e-05  5.6564872900064855e-05  5.5403265858540374e-05  5.5024081742377909e-05  5.4879438444779859e-05  5.4792539973170140e-05  5.4700053325907222e-05  5.4572437809806040e-05  5.4388907966678671e-05  5.4129876424979875e-05  5.3775241429549217e-05  5.3304842749643599e-05  5.2699863068649410e-05  5.1944662859312953e-05  5.1028684244100521e-05  4.9947857007372093e-05  4.8702982724960065e-05  4.7275849551229052e-05  4.5397642283047662e-05  4.1277415356152370e-05  3.5286215809682550e-05  3.0032394890261051e-05  2.5983975093198638e-05  2.2858321843823731e-05  2.0407630176639912e-05  1.8456341803902508e-05  1.6879905098551580e-05  1.5594843241325022e-05  1.4572064028904602e-05  1.3907772467213956e-05  1.4060608851943603e-05  1.6507273134436946e-05  2.1255644591671627e-05  2.2150298512283587e-05  2.1388406889155238e-05  2.0041687709705989e-05  1.8471251501720291e-05  1.6805225012215595e-05  1.5102205549073126e-05  1.3401559418600796e-05  1.1737263913784355e-05  1.0140387003086989e-05  8.6382873758732431e-06  7.2531882777739535e-06  6.0009642913543308e-06  4.8901671665146817e-06  3.9203626656980621e-06  3.0762479679381601e-06  2.3056194329928579e-06  1.4447593616013239e-06  0.0000000000000000e+00  6.0000000000000002e-05  5.6789246445013039e-05  5.5662947115434328e-05  5.5294301270063343e-05  5.5152906772859995e-05  5.5066927255205342e-05  5.4974547510048914e-05  5.4846667867238777e-05  5.4662593947032405e-05  5.4402708416593147e-05  5.4046832567614261e-05  5.3574709127031752e-05  5.2967417433075000e-05  5.2209219598385552e-05  5.1289477359434245e-05  5.0204086061917340e-05  4.8954015712653515e-05  4.7522678413898636e-05  4.5653904288519559e-05  4.1779798689539663e-05  3.6104365687599463e-05  3.0940534328089002e-05  2.6870898380230442e-05  2.3697361447502771e-05  2.1195555316440221e-05  1.9196325881067317e-05  1.7576370644835467e-05  1.6251409838484826e-05  1.5189780644327043e-05  1.4481441036594195e-05  1.4567522835394529e-05  1.6872801048414399e-05  2.1470071432587353e-05  2.2304638058684964e-05  2.1514905237746024e-05  2.0153872727082210e-05  1.8573357313242111e-05  1.6898375981737392e-05  1.5186615967470408e-05  1.3477256600870545e-05  1.1804327350287435e-05  1.0199025559233334e-05  8.6888562935602222e-06  7.2961793446822445e-06  6.0369820072312735e-06  4.9198979981118556e-06  3.9445434178541967e-06  3.0956380069344409e-06  2.3209488817983737e-06  1.4562375730833859e-06  0.0000000000000000e+00  6.0000000000000002e-05  5.7008124058914638e-05  5.5921907389768475e-05  5.5565236377869698e-05  5.5427544153818918e-05  5.5342626638102505e-05  5.5250398531369121e-05  5.5122268039783401e-05  5.4937652810862882e-05  5.4676911931856882e-05  5.4319791461917170e-05  5.3845937286973692e-05  5.3236325095314462e-05  5.2475118193580155e-05  5.1551597647352954e-05  5.0461625682230422e-05  4.9206355469876559e-05  4.7770944462720188e-05  4.5913813642143310e-05  4.2262810804067383e-05  3.6880135340271663e-05  3.1825420786413289e-05  2.7752107548528383e-05  2.4541679226663267e-05  2.1995613418109997e-05  1.9952756880111094e-05  1.8291960834847966e-05  1.6928645038677099e-05  1.5828783593923453e-05  1.5075974955096799e-05  1.5093712216842324e-05  1.7258437732764627e-05  2.1698070422341018e-05  2.2463900682526386e-05  2.1643375767105253e-05  2.0267065444950411e-05  1.8676142183448184e-05  1.6992075344875330e-05  1.5271504816028101e-05  1.3553380470171011e-05  1.1871771202884966e-05  1.0258000323654790e-05  8.7397187894337239e-06  7.3394233259705289e-06  6.0732145224898820e-06  4.9498085957713010e-06  3.9688723345972574e-06  3.1151477057720199e-06  2.3363669317239046e-06  1.4677141780132916e-06  0.0000000000000000e+00  6.0000000000000002e-05  5.7221779803694924e-05  5.6180210380363034e-05  5.5836911581091142e-05  5.5703363047513959e-05  5.5619646799700337e-05  5.5527613880538463e-05  5.5399245451768247e-05  5.5214091576737374e-05  5.4952493965866547e-05  5.4594125108054944e-05  5.4118534228382315e-05  5.3506593050199334e-05  5.2742365619966700e-05  5.1815052030378511e-05  5.0720482605651042e-05  4.9460007586370345e-05  4.8020647052916724e-05  4.6177098085225592e-05  4.2729409343959821e-05  3.7618289949085078e-05  3.2687664856797289e-05  2.8627380639861680e-05  2.5391194458708465e-05  2.2808005645193554e-05  2.0726084256149642e-05  1.9027312830810002e-05  1.7627319354743231e-05  1.6489933612248231e-05  1.5692291715145717e-05  1.5640108957907613e-05  1.7664228823320683e-05  2.1939446169733593e-05  2.2627996746175853e-05  2.1773787483898846e-05  2.0381258063134474e-05  1.8779605693721044e-05  1.7086324851256113e-05  1.5356874356701587e-05  1.3629933273654422e-05  1.1939597534309937e-05  1.0317313121674358e-05  8.7908764398673149e-06  7.3829215549776176e-06  6.1096629421943252e-06  4.9798998553551317e-06  3.9933501227506523e-06  3.1347776183486730e-06  2.3518742625094682e-06  1.4791940411863088e-06  0.0000000000000000e+00  6.0000000000000002e-05  5.7430520884910024e-05  5.6437928748961162e-05  5.6109354280851232e-05  5.5980376846388556e-05  5.5897996733859664e-05  5.5806201167928988e-05  5.5677607283260024e-05  5.5491917296368720e-05  5.5229461536912173e-05  5.4869840518539032e-05  5.4392506961830402e-05  5.3778228299410585e-05  5.3010968855155719e-05  5.2079847429515890e-05  5.0980663559338217e-05  4.9714977583659339e-05  4.8271784708822483e-05  4.6443510929639602e-05  4.3182163069720210e-05  3.8323309209683329e-05  3.3528289322981779e-05  2.9496766812765673e-05  2.6245998639087745e-05  2.3633056196136431e-05  2.1516854946653764e-05  1.9783146657066286e-05  1.8348276975442867e-05  1.7174158515477778e-05  1.6331366246910793e-05  1.6207662165804551e-05  1.8090309575452317e-05  2.2193971490518889e-05  2.2796819197567667e-05  2.1906103637658310e-05  2.0496440967625721e-05  1.8883746858131934e-05  1.7181126075126847e-05  1.5442726801504504e-05  1.3706917251474071e-05  1.2007808417755327e-05  1.0376965798415291e-05  8.8423308473167478e-06  7.4266753956784067e-06  6.1463284052055236e-06  5.0101727086441978e-06  4.0179775274823690e-06  3.1545283454615430e-06  2.3674716461537217e-06  1.4906822642777538e-06  0.0000000000000000e+00  6.0000000000000002e-05  5.7634680315944568e-05  5.6695143820180895e-05  5.6382594656637784e-05  5.6258599842566245e-05  5.6177685740648965e-05  5.6086168121325426e-05  5.5957360770488041e-05  5.5771137056317974e-05  5.5507821689084005e-05  5.5146944726242721e-05  5.4667862513842558e-05  5.4051237856590016e-05  5.3280934885139157e-05  5.2345990770657941e-05  5.1242175267033236e-05  4.9971270923027407e-05  4.8524355069976667e-05  4.6712829213759190e-05  4.3623315348954990e-05  3.8999369540363096e-05  3.4348669030597629e-05  3.0360587728097764e-05  2.7106366268509921e-05  2.4471222858079474e-05  2.2325722240652657e-05  2.0560272494078998e-05  1.9092441843819053e-05  1.7882458458370723e-05  1.6994235934426581e-05  1.6797348769803428e-05  1.8536889006967678e-05  2.2461388392966403e-05  2.2970243793031663e-05  2.2040281918446462e-05  2.0612602800078406e-05  1.8988564147561086e-05  1.7276480424477167e-05  1.5529064316242941e-05  1.3784334638019798e-05  1.2076405936461314e-05  1.0436960217029571e-05  8.8940836373706192e-06  7.4706862387517499e-06  6.1832120794840444e-06  5.0406281180625714e-06  4.0427553264420398e-06  3.1744005276374257e-06  2.3831599357356082e-06  1.5021841287379089e-06  0.0000000000000000e+00  6.0000000000000002e-05  5.7834611038614308e-05  5.6951945262038894e-05  5.6656665555011095e-05  5.6538047193707133e-05  5.6458723416062162e-05  5.6367522583369059e-05  5.6238513206006276e-05  5.6051757979363631e-05  5.5787581494435692e-05  5.5425444787274542e-05  5.4944607930470512e-05  5.4325628751593337e-05  5.3552270709146402e-05  5.2613488989919505e-05  5.1505024454807078e-05  5.0228893013133880e-05  4.8778354875793214e-05  4.6984851669994419e-05  4.4054838330459436e-05  3.9650351932376831e-05  3.5150475594581072e-05  3.1219436316445295e-05  2.7972764726827614e-05  2.5323107439229495e-05  2.3153454795938658e-05  2.1359598192303543e-05  1.9860823958128922e-05  1.8615911409291913e-05  1.7682005909925382e-05  1.7410183029215279e-05  1.9004238692508717e-05  2.2741408501905721e-05  2.3148129362646327e-05  2.2176274661069054e-05  2.0729730528978446e-05  1.9094055513984543e-05  1.7372389149942236e-05  1.5615889024028953e-05  1.3862187663073798e-05  1.2145392183417814e-05  1.0497298257249915e-05  8.9461364563216064e-06  7.5149554983387134e-06  6.2203151582175076e-06  5.0712670723287462e-06  4.0676843249254592e-06  3.1943948391817808e-06  2.3989400557536198e-06  1.5137050517082214e-06  0.0000000000000000e+00  6.0000000000000002e-05  5.8030681256230788e-05  5.7208430740819117e-05  5.6931602373516574e-05  5.6818734887299557e-05  5.6741119641178838e-05  5.6650272508727106e-05  5.6521071938623098e-05  5.6333787225591874e-05  5.6068748054782329e-05  5.5705347783380073e-05  5.5222750280280471e-05  5.4601408034039229e-05  5.382498334369330