<?xml version="1.0"?>
<VTKFile type="UnstructuredGrid"  version="0.1"  >
<UnstructuredGrid>
<Piece  NumberOfPoints="2601" NumberOfCells="5000">
<Points>
<DataArray  type="Float64"  NumberOfComponents="3"  format="ascii">-1 0 0  -0.96 0 0  -0.92 0 0  -0.88 0 0  -0.84 0 0  -0.8 0 0  -0.76 0 0  -0.72 0 0  -0.6799999999999999 0 0  -0.64 0 0  -0.6 0 0  -0.5600000000000001 0 0  -0.52 0 0  -0.48 0 0  -0.4399999999999999 0 0  -0.4 0 0  -0.36 0 0  -0.32 0 0  -0.28 0 0  -0.24 0 0  -0.2 0 0  -0.16 0 0  -0.12 0 0  -0.07999999999999996 0 0  -0.04000000000000004 0 0  0 0 0  0.04000000000000004 0 0  0.08000000000000007 0 0  0.1200000000000001 0 0  0.1599999999999999 0 0  0.2 0 0  0.24 0 0  0.28 0 0  0.3200000000000001 0 0  0.3600000000000001 0 0  0.3999999999999999 0 0  0.4399999999999999 0 0  0.48 0 0  0.52 0 0  0.5600000000000001 0 0  0.6000000000000001 0 0  0.6399999999999999 0 0  0.6799999999999999 0 0  0.72 0 0  0.76 0 0  0.8 0 0  0.8400000000000001 0 0  0.8799999999999999 0 0  0.9199999999999999 0 0  0.96 0 0  1 0 0  -1 0.016 0  -0.96 0.016 0  -0.92 0.016 0  -0.88 0.016 0  -0.84 0.016 0  -0.8 0.016 0  -0.76 0.016 0  -0.72 0.016 0  -0.6799999999999999 0.016 0  -0.64 0.016 0  -0.6 0.016 0  -0.5600000000000001 0.016 0  -0.52 0.016 0  -0.48 0.016 0  -0.4399999999999999 0.016 0  -0.4 0.016 0  -0.36 0.016 0  -0.32 0.016 0  -0.28 0.016 0  -0.24 0.016 0  -0.2 0.016 0  -0.16 0.016 0  -0.12 0.016 0  -0.07999999999999996 0.016 0  -0.04000000000000004 0.016 0  0 0.016 0  0.04000000000000004 0.016 0  0.08000000000000007 0.016 0  0.1200000000000001 0.016 0  0.1599999999999999 0.016 0  0.2 0.016 0  0.24 0.016 0  0.28 0.016 0  0.3200000000000001 0.016 0  0.3600000000000001 0.016 0  0.3999999999999999 0.016 0  0.4399999999999999 0.016 0  0.48 0.016 0  0.52 0.016 0  0.5600000000000001 0.016 0  0.6000000000000001 0.016 0  0.6399999999999999 0.016 0  0.6799999999999999 0.016 0  0.72 0.016 0  0.76 0.016 0  0.8 0.016 0  0.8400000000000001 0.016 0  0.8799999999999999 0.016 0  0.9199999999999999 0.016 0  0.96 0.016 0  1 0.016 0  -1 0.032 0  -0.96 0.032 0  -0.92 0.032 0  -0.88 0.032 0  -0.84 0.032 0  -0.8 0.032 0  -0.76 0.032 0  -0.72 0.032 0  -0.6799999999999999 0.032 0  -0.64 0.032 0  -0.6 0.032 0  -0.5600000000000001 0.032 0  -0.52 0.032 0  -0.48 0.032 0  -0.4399999999999999 0.032 0  -0.4 0.032 0  -0.36 0.032 0  -0.32 0.032 0  -0.28 0.032 0  -0.24 0.032 0  -0.2 0.032 0  -0.16 0.032 0  -0.12 0.032 0  -0.07999999999999996 0.032 0  -0.04000000000000004 0.032 0  0 0.032 0  0.04000000000000004 0.032 0  0.08000000000000007 0.032 0  0.1200000000000001 0.032 0  0.1599999999999999 0.032 0  0.2 0.032 0  0.24 0.032 0  0.28 0.032 0  0.3200000000000001 0.032 0  0.3600000000000001 0.032 0  0.3999999999999999 0.032 0  0.4399999999999999 0.032 0  0.48 0.032 0  0.52 0.032 0  0.5600000000000001 0.032 0  0.6000000000000001 0.032 0  0.6399999999999999 0.032 0  0.6799999999999999 0.032 0  0.72 0.032 0  0.76 0.032 0  0.8 0.032 0  0.8400000000000001 0.032 0  0.8799999999999999 0.032 0  0.9199999999999999 0.032 0  0.96 0.032 0  1 0.032 0  -1 0.04800000000000001 0  -0.96 0.04800000000000001 0  -0.92 0.04800000000000001 0  -0.88 0.04800000000000001 0  -0.84 0.04800000000000001 0  -0.8 0.04800000000000001 0  -0.76 0.04800000000000001 0  -0.72 0.04800000000000001 0  -0.6799999999999999 0.04800000000000001 0  -0.64 0.04800000000000001 0  -0.6 0.04800000000000001 0  -0.5600000000000001 0.04800000000000001 0  -0.52 0.04800000000000001 0  -0.48 0.04800000000000001 0  -0.4399999999999999 0.04800000000000001 0  -0.4 0.04800000000000001 0  -0.36 0.04800000000000001 0  -0.32 0.04800000000000001 0  -0.28 0.04800000000000001 0  -0.24 0.04800000000000001 0  -0.2 0.04800000000000001 0  -0.16 0.04800000000000001 0  -0.12 0.04800000000000001 0  -0.07999999999999996 0.04800000000000001 0  -0.04000000000000004 0.04800000000000001 0  0 0.04800000000000001 0  0.04000000000000004 0.04800000000000001 0  0.08000000000000007 0.04800000000000001 0  0.1200000000000001 0.04800000000000001 0  0.1599999999999999 0.04800000000000001 0  0.2 0.04800000000000001 0  0.24 0.04800000000000001 0  0.28 0.04800000000000001 0  0.3200000000000001 0.04800000000000001 0  0.3600000000000001 0.04800000000000001 0  0.3999999999999999 0.04800000000000001 0  0.4399999999999999 0.04800000000000001 0  0.48 0.04800000000000001 0  0.52 0.04800000000000001 0  0.5600000000000001 0.04800000000000001 0  0.6000000000000001 0.04800000000000001 0  0.6399999999999999 0.04800000000000001 0  0.6799999999999999 0.04800000000000001 0  0.72 0.04800000000000001 0  0.76 0.04800000000000001 0  0.8 0.04800000000000001 0  0.8400000000000001 0.04800000000000001 0  0.8799999999999999 0.04800000000000001 0  0.9199999999999999 0.04800000000000001 0  0.96 0.04800000000000001 0  1 0.04800000000000001 0  -1 0.064 0  -0.96 0.064 0  -0.92 0.064 0  -0.88 0.064 0  -0.84 0.064 0  -0.8 0.064 0  -0.76 0.064 0  -0.72 0.064 0  -0.6799999999999999 0.064 0  -0.64 0.064 0  -0.6 0.064 0  -0.5600000000000001 0.064 0  -0.52 0.064 0  -0.48 0.064 0  -0.4399999999999999 0.064 0  -0.4 0.064 0  -0.36 0.064 0  -0.32 0.064 0  -0.28 0.064 0  -0.24 0.064 0  -0.2 0.064 0  -0.16 0.064 0  -0.12 0.064 0  -0.07999999999999996 0.064 0  -0.04000000000000004 0.064 0  0 0.064 0  0.04000000000000004 0.064 0  0.08000000000000007 0.064 0  0.1200000000000001 0.064 0  0.1599999999999999 0.064 0  0.2 0.064 0  0.24 0.064 0  0.28 0.064 0  0.3200000000000001 0.064 0  0.3600000000000001 0.064 0  0.3999999999999999 0.064 0  0.4399999999999999 0.064 0  0.48 0.064 0  0.52 0.064 0  0.5600000000000001 0.064 0  0.6000000000000001 0.064 0  0.6399999999999999 0.064 0  0.6799999999999999 0.064 0  0.72 0.064 0  0.76 0.064 0  0.8 0.064 0  0.8400000000000001 0.064 0  0.8799999999999999 0.064 0  0.9199999999999999 0.064 0  0.96 0.064 0  1 0.064 0  -1 0.08 0  -0.96 0.08 0  -0.92 0.08 0  -0.88 0.08 0  -0.84 0.08 0  -0.8 0.08 0  -0.76 0.08 0  -0.72 0.08 0  -0.6799999999999999 0.08 0  -0.64 0.08 0  -0.6 0.08 0  -0.5600000000000001 0.08 0  -0.52 0.08 0  -0.48 0.08 0  -0.4399999999999999 0.08 0  -0.4 0.08 0  -0.36 0.08 0  -0.32 0.08 0  -0.28 0.08 0  -0.24 0.08 0  -0.2 0.08 0  -0.16 0.08 0  -0.12 0.08 0  -0.07999999999999996 0.08 0  -0.04000000000000004 0.08 0  0 0.08 0  0.04000000000000004 0.08 0  0.08000000000000007 0.08 0  0.1200000000000001 0.08 0  0.1599999999999999 0.08 0  0.2 0.08 0  0.24 0.08 0  0.28 0.08 0  0.3200000000000001 0.08 0  0.3600000000000001 0.08 0  0.3999999999999999 0.08 0  0.4399999999999999 0.08 0  0.48 0.08 0  0.52 0.08 0  0.5600000000000001 0.08 0  0.6000000000000001 0.08 0  0.6399999999999999 0.08 0  0.6799999999999999 0.08 0  0.72 0.08 0  0.76 0.08 0  0.8 0.08 0  0.8400000000000001 0.08 0  0.8799999999999999 0.08 0  0.9199999999999999 0.08 0  0.96 0.08 0  1 0.08 0  -1 0.09600000000000002 0  -0.96 0.09600000000000002 0  -0.92 0.09600000000000002 0  -0.88 0.09600000000000002 0  -0.84 0.09600000000000002 0  -0.8 0.09600000000000002 0  -0.76 0.09600000000000002 0  -0.72 0.09600000000000002 0  -0.6799999999999999 0.09600000000000002 0  -0.64 0.09600000000000002 0  -0.6 0.09600000000000002 0  -0.5600000000000001 0.09600000000000002 0  -0.52 0.09600000000000002 0  -0.48 0.09600000000000002 0  -0.4399999999999999 0.09600000000000002 0  -0.4 0.09600000000000002 0  -0.36 0.09600000000000002 0  -0.32 0.09600000000000002 0  -0.28 0.09600000000000002 0  -0.24 0.09600000000000002 0  -0.2 0.09600000000000002 0  -0.16 0.09600000000000002 0  -0.12 0.09600000000000002 0  -0.07999999999999996 0.09600000000000002 0  -0.04000000000000004 0.09600000000000002 0  0 0.09600000000000002 0  0.04000000000000004 0.09600000000000002 0  0.08000000000000007 0.09600000000000002 0  0.1200000000000001 0.09600000000000002 0  0.1599999999999999 0.09600000000000002 0  0.2 0.09600000000000002 0  0.24 0.09600000000000002 0  0.28 0.09600000000000002 0  0.3200000000000001 0.09600000000000002 0  0.3600000000000001 0.09600000000000002 0  0.3999999999999999 0.09600000000000002 0  0.4399999999999999 0.09600000000000002 0  0.48 0.09600000000000002 0  0.52 0.09600000000000002 0  0.5600000000000001 0.09600000000000002 0  0.6000000000000001 0.09600000000000002 0  0.6399999999999999 0.09600000000000002 0  0.6799999999999999 0.09600000000000002 0  0.72 0.09600000000000002 0  0.76 0.09600000000000002 0  0.8 0.09600000000000002 0  0.8400000000000001 0.09600000000000002 0  0.8799999999999999 0.09600000000000002 0  0.9199999999999999 0.09600000000000002 0  0.96 0.09600000000000002 0  1 0.09600000000000002 0  -1 0.112 0  -0.96 0.112 0  -0.92 0.112 0  -0.88 0.112 0  -0.84 0.112 0  -0.8 0.112 0  -0.76 0.112 0  -0.72 0.112 0  -0.6799999999999999 0.112 0  -0.64 0.112 0  -0.6 0.112 0  -0.5600000000000001 0.112 0  -0.52 0.112 0  -0.48 0.112 0  -0.4399999999999999 0.112 0  -0.4 0.112 0  -0.36 0.112 0  -0.32 0.112 0  -0.28 0.112 0  -0.24 0.112 0  -0.2 0.112 0  -0.16 0.112 0  -0.12 0.112 0  -0.07999999999999996 0.112 0  -0.04000000000000004 0.112 0  0 0.112 0  0.04000000000000004 0.112 0  0.08000000000000007 0.112 0  0.1200000000000001 0.112 0  0.1599999999999999 0.112 0  0.2 0.112 0  0.24 0.112 0  0.28 0.112 0  0.3200000000000001 0.112 0  0.3600000000000001 0.112 0  0.3999999999999999 0.112 0  0.4399999999999999 0.112 0  0.48 0.112 0  0.52 0.112 0  0.5600000000000001 0.112 0  0.6000000000000001 0.112 0  0.6399999999999999 0.112 0  0.6799999999999999 0.112 0  0.72 0.112 0  0.76 0.112 0  0.8 0.112 0  0.8400000000000001 0.112 0  0.8799999999999999 0.112 0  0.9199999999999999 0.112 0  0.96 0.112 0  1 0.112 0  -1 0.128 0  -0.96 0.128 0  -0.92 0.128 0  -0.88 0.128 0  -0.84 0.128 0  -0.8 0.128 0  -0.76 0.128 0  -0.72 0.128 0  -0.6799999999999999 0.128 0  -0.64 0.128 0  -0.6 0.128 0  -0.5600000000000001 0.128 0  -0.52 0.128 0  -0.48 0.128 0  -0.4399999999999999 0.128 0  -0.4 0.128 0  -0.36 0.128 0  -0.32 0.128 0  -0.28 0.128 0  -0.24 0.128 0  -0.2 0.128 0  -0.16 0.128 0  -0.12 0.128 0  -0.07999999999999996 0.128 0  -0.04000000000000004 0.128 0  0 0.128 0  0.04000000000000004 0.128 0  0.08000000000000007 0.128 0  0.1200000000000001 0.128 0  0.1599
[...]
<PointData  Scalars="f_100"> 
<DataArray  type="Float64"  Name="f_100"  format="ascii">6.0000000000000002e-05  5.3751328574115894e-05  5.1522666018284122e-05  4.9577427398728188e-05  4.7292593044357898e-05  4.4575045731392142e-05  4.1563830822667223e-05  3.8495253156278624e-05  3.5611353072253971e-05  3.3097441667198594e-05  3.1052831620032414e-05  2.9492495303933367e-05  2.8368676983389886e-05  2.7598647627901752e-05  2.7087658909219352e-05  2.6741261471147804e-05  2.6464632707010271e-05  2.6137624081428327e-05  2.5496347022218637e-05  2.0847263815366192e-05  1.5027712182212729e-05  1.1997250094905464e-05  9.5962710060507347e-06  7.5336467312798652e-06  5.7438766150718671e-06  4.2261930994000943e-06  2.9898806030993036e-06  2.0304784576903250e-06  1.3242653023989230e-06  8.3561277412853551e-07  5.3898620187078446e-07  5.0534743484013235e-07  5.6647664786122349e-07  4.0607598514585827e-07  2.4744646945131012e-07  1.3863916675679786e-07  7.3698652757391595e-08  3.7677392185520246e-08  1.8647681072110625e-08  8.9684222363601584e-09  4.2016470404614530e-09  1.9210125756067673e-09  8.5841895114946930e-10  3.7539860929351143e-10  1.6084901513395862e-10  6.7599090748125755e-11  2.7892277605184926e-11  1.1307326971695350e-11  4.4922836669087725e-12  1.6510139556395519e-12  0.0000000000000000e+00  6.0000000000000002e-05  5.4026373538801650e-05  5.1788817630471384e-05  4.9835909862469960e-05  4.7542238194411623e-05  4.4813129961276407e-05  4.1787735666007900e-05  3.8703378455132879e-05  3.5803502343165386e-05  3.3274755894976414e-05  3.1217409744372786e-05  2.9646891918920536e-05  2.8515446889713166e-05  2.7740034142894111e-05  2.7225443324290687e-05  2.6876736162446016e-05  2.6598643543867005e-05  2.6270763634100053e-05  2.5616375382752443e-05  2.1391941164257290e-05  1.5792303269503190e-05  1.2624531210322671e-05  1.0106914766001486e-05  7.9444241159289258e-06  6.0661916559416681e-06  4.4707616379690617e-06  3.1683865884959883e-06  2.1554370155545502e-06  1.4080434902054969e-06  8.8929657189207758e-07  5.7136865177883551e-07  5.1310005073450830e-07  5.7021324174322496e-07  4.0917693240830519e-07  2.4939613722868774e-07  1.3975395213909931e-07  7.4301360482477372e-08  3.7990182493039909e-08  1.8804616622773135e-08  9.0448471841887058e-09  4.2378647805258907e-09  1.9377473942310243e-09  8.6597029319576464e-10  3.7873080436092456e-10  1.6228873529737382e-10  6.8208850569500163e-11  2.8145689672784825e-11  1.1410777064227895e-11  4.5338473278516282e-12  1.6677734072004709e-12  0.0000000000000000e+00  6.0000000000000002e-05  5.4297337309583367e-05  5.2054123578339002e-05  5.0095004803461123e-05  4.7792935114438817e-05  4.5052375448476502e-05  4.2012797967698602e-05  3.8912613917489683e-05  3.5996696165115395e-05  3.3453042854315372e-05  3.1382890500344598e-05  2.9802128346931160e-05  2.8663004346562430e-05  2.7882167586676759e-05  2.7363945152779296e-05  2.7012909459131934e-05  2.6733354819920366e-05  2.6404728862957832e-05  2.5740646493315432e-05  2.1890176081744304e-05  1.6549894926332557e-05  1.3249549132092765e-05  1.0620965893638590e-05  8.3609229765907701e-06  6.3948659791868765e-06  4.7214000464235425e-06  3.3521634482750090e-06  2.2846464526889191e-06  1.4950352875344031e-06  9.4526134678888937e-07  6.0515826330110142e-07  5.2351829310002932e-07  5.7484086601861069e-07  4.1255890734336978e-07  2.5143218594368926e-07  1.4089796431826837e-07  7.4915441938737265e-08  3.8307963252416956e-08  1.8963899945532018e-08  9.1224052858091581e-09  4.2746289429318602e-09  1.9547420583008750e-09  8.7364281725759450e-10  3.8211831811216527e-10  1.6375316802745526e-10  6.8829419696778061e-11  2.8403734821716707e-11  1.1516175152281220e-11  4.5762140793880832e-12  1.6848077029331666e-12  0.0000000000000000e+00  6.0000000000000002e-05  5.4563421429395341e-05  5.2318546180870533e-05  5.0354709854962970e-05  4.8044691298660605e-05  4.5292792083467602e-05  4.2239026908193616e-05  3.9122966660655468e-05  3.6190939260620951e-05  3.3632305214780647e-05  3.1549275196054820e-05  2.9958205278829322e-05  2.8811350022407426e-05  2.8025048970426178e-05  2.7503165900247276e-05  2.7149783341364136e-05  2.6868768610212549e-05  2.6539512855139559e-05  2.5868893061893239e-05  2.2348225827549200e-05  1.7281514175786528e-05  1.3868925441566856e-05  1.1136966472576148e-05  8.7823786563854183e-06  6.7294935094992401e-06  4.9778966390016640e-06  3.5411022625969281e-06  2.4180496425551783e-06  1.5852094648000359e-06  1.0034936554001269e-06  6.4040850386326747e-07  5.3628954088936556e-07  5.8037438280387198e-07  4.1622630068167564e-07  2.5355543711470607e-07  1.4207105156779231e-07  7.5540635702017175e-08  3.8630541216813210e-08  1.9125413084547490e-08  9.2010306214648081e-09  4.3119046615899909e-09  1.9719788714844829e-09  8.8142784453934781e-10  3.8555702096185794e-10  1.6524040154612895e-10  6.9459935188218466e-11  2.8666032578483727e-11  1.1623357007101659e-11  4.6193137467301895e-12  1.7020832791698474e-12  0.0000000000000000e+00  6.0000000000000002e-05  5.4824066167484498e-05  5.2582063528984942e-05  5.0615026030708543e-05  4.8297514674919865e-05  4.5534389367015228e-05  4.2466431240212657e-05  3.9334443640556616e-05  3.6386236531828202e-05  3.3812546111267875e-05  3.1716565773779456e-05  3.0115124084846038e-05  2.8960485215060456e-05  2.8168679830733099e-05  2.7643107476470712e-05  2.7287360078106358e-05  2.7004887178856368e-05  2.6675111326200037e-05  2.6000845123105814e-05  2.2771657774812130e-05  1.7978014589847667e-05  1.4480210404111121e-05  1.1653635661236989e-05  9.2081024451491967e-06  7.0697189152312141e-06  5.2400860237446739e-06  3.7351413342357160e-06  2.5556365258595597e-06  1.6785780981777421e-06  1.0640148103727621e-06  6.7718061483517706e-07  5.5118614369188990e-07  5.8682633345277887e-07  4.2018248644142848e-07  2.5576645116965684e-07  1.4327306659471831e-07  7.6176727035105066e-08  3.8957760876259806e-08  1.9289061668238584e-08  9.2806705520072221e-09  4.3496641117654048e-09  1.9894437135721674e-09  8.8931845020687012e-10  3.8904361787293972e-10  1.6674891043394357e-10  7.0099708518420464e-11  2.8932279387644443e-11  1.1732191612061653e-11  4.6630903653892448e-12  1.7195742336401490e-12  0.0000000000000000e+00  6.0000000000000002e-05  5.5078907038353961e-05  5.2844667457748160e-05  5.0875957633142520e-05  4.8551413693607572e-05  4.5777176536762828e-05  4.2695019388869230e-05  3.9547051694563743e-05  3.6582593039287135e-05  3.3993769069956182e-05  3.1884764704029478e-05  3.0272886698885822e-05  2.9110411743519516e-05  2.8313062139039223e-05  2.7783772125867744e-05  2.7425642176746511e-05  2.7141712933465850e-05  2.6811521845022352e-05  2.6136237339747226e-05  2.3165352882450511e-05  1.8635962770301407e-05  1.5081428329473193e-05  1.2169821189380628e-05  9.6374651666736916e-06  7.4152263892636802e-06  5.5078372031130158e-06  3.9342521337118546e-06  2.6974286108622389e-06  1.7751813428840547e-06  1.1268681678390507e-06  7.1553883890180033e-07  5.6804316617387500e-07  5.9420677708932172e-07  4.2442983767505406e-07  2.5806552648561061e-07  1.4450385350572073e-07  7.6823536305293489e-08  3.9289496777585227e-08  1.9454770376636023e-08  9.3612832152632702e-09  4.3878851905240381e-09  2.0071253708170875e-09  8.9730913450744388e-10  3.9257549153694446e-10  1.6827748285292092e-10  7.0748192642355161e-11  2.9202234051501134e-11  1.1842574861213567e-11  4.7074994829624066e-12  1.7372608477002647e-12  0.0000000000000000e+00  6.0000000000000002e-05  5.5327738718830654e-05  5.3106362130736093e-05  5.1137512180714895e-05  4.8806397400704141e-05  4.6021162671248656e-05  4.2924799533703347e-05  3.9760797576192210e-05  3.6780013983912217e-05  3.4175977946918864e-05  3.2053874898128784e-05  3.0431495523290807e-05  2.9261131859101322e-05  2.8458198227340891e-05  2.7925162370506456e-05  2.7564632341934615e-05  2.7279248389527599e-05  2.6948743214274951e-05  2.6274814134569042e-05  2.3533550890765422e-05  1.9255174420267144e-05  1.5670950562432024e-05  1.2684490167647495e-05  1.0069894013683194e-05  7.7657367462816200e-06  5.7810490605614277e-06  4.1384329002531006e-06  2.8434713669725959e-06  1.8750797293823440e-06  1.1921126369062328e-06  7.5554903938332118e-07  5.8674257817432913e-07  6.0252329049343591e-07  4.2896973683774317e-07  2.6045269847455802e-07  1.4576323708384538e-07  7.7480909509601932e-08  3.9625647256053842e-08  1.9622479246948127e-08  9.4428354874965027e-09  4.4265504432483338e-09  2.0250149915810961e-09  9.0539555562298565e-10  3.9615057507710011e-10  1.6982516150831938e-10  7.1404955293325384e-11  2.9475705932503652e-11  1.1954424456286577e-11  4.7525059751394207e-12  1.7551283868589386e-12  0.0000000000000000e+00  6.0000000000000002e-05  5.5570485154586459e-05  5.3367163055469435e-05  5.1399700345947556e-05  4.9062475496754362e-05  4.6266356775061413e-05  4.3155779675791204e-05  3.9975687983184612e-05  3.6978504691659115e-05  3.4359176877230704e-05  3.2223899636071618e-05  3.0590953350446997e-05  2.9412648172425650e-05  2.8604090727239790e-05  2.8067280963421353e-05  2.7704333441965490e-05  2.7417496142577836e-05  2.7086774981717527e-05  2.6416333117745196e-05  2.3879914276113882e-05  1.9837245475925485e-05  1.6247484169221421e-05  1.3196733867609745e-05  1.0504875892106889e-05  8.1210090258538091e-06  6.0596500014076126e-06  4.3477065778742027e-06  2.9938310620639868e-06  1.9783506552528396e-06  1.2598196284309003e-06  7.9727893335237386e-07  6.0720196083657728e-07  6.1178105681499732e-07  4.3380258176890498e-07  2.6292773893498439e-07  1.4705101403851290e-07  7.8148710543141508e-08  3.9966129323886943e-08  1.9792140663440837e-08  9.5253013238195221e-09  4.4656461903918594e-09  2.0431056438501581e-09  9.1357431267034659e-10  3.9976724871624910e-10  1.7139119575546580e-10  7.2069657334798657e-11  2.9752545394094974e-11  1.2067675774166167e-11  4.7980822778482068e-12  1.7731661279691159e-12  0.0000000000000000e+00  6.0000000000000002e-05  5.5807174843254339e-05  5.3627096394036321e-05  5.1662535898352103e-05  4.9319658383348497e-05  4.6512767848206138e-05  4.3387967692538632e-05  4.0191729580199886e-05  3.7178070600513014e-05  3.4543370232777925e-05  3.2394842506989665e-05  3.0751263298254934e-05  2.9564963593424477e-05  2.8750742519944318e-05  2.8210130850376378e-05  2.7844748481336934e-05  2.7556458846518383e-05  2.7225617060689472e-05  2.6560567195850268e-05  2.4207597886768537e-05  2.0384683197306904e-05  1.6810085536657974e-05  1.3705776850263903e-05  1.0941963933960085e-05  8.4808445548696968e-06  6.3435999643586981e-06  4.5621212385454283e-06  3.1485941281598073e-06  2.0850872376847121e-06  1.3300719217821109e-06  8.4079904066224919e-07  6.2936640601585504e-07  6.2198299479096537e-07  4.3892778831794615e-07  2.6549015584418640e-07  1.4836694594633298e-07  7.8826814910945192e-08  4.0310874507275475e-08  1.9963716906078580e-08  9.6086604073804705e-09  4.5051618171756501e-09  2.0613919555636824e-09  9.2184276943517412e-10  4.0342425589695440e-10  1.7297500274704698e-10  7.2742035209224483e-11  3.0032636055121049e-11  1.2182278520216842e-11  4.8442069561520927e-12  1.7913665710115919e-12  0.0000000000000000e+00  6.0000000000000002e-05  5.6037920445477526e-05  5.3886198468077949e-05  5.1926035647978205e-05  4.9577957198466570e-05  4.6760404942224168e-05  4.3621371382300531e-05  4.0408929017104595e-05  3.7378717249440918e-05  3.4728562587281940e-05  3.2566707360024422e-05  3.0912428757012334e-05  2.9718081282052180e-05  2.8898156695254188e-05  2.8353715138548471e-05  2.7985880578363442e-05  2.7696139196773947e-05  2.7365269440947845e-05  2.6707305676339679e-05  2.4519317132906013e-05  2.0900398599594381e-05  1.7358165715551804e-05  1.4210986741019193e-05  1.1380785433714957e-05  8.8450923530883446e-06  6.6328938130275709e-06  4.7817519619093858e-06  3.3078679918647289e-06  2.1953985152359423e-06  1.4029636180877377e-06  8.8618391115252751e-07  6.5320269225144350e-07  6.3312989664474808e-07  4.4434379059940515e-07  2.6813919373039122e-07  1.4971075364618856e-07  7.9515104636852774e-08  4.0659825461453764e-08  2.0137178155491401e-08  9.6928970501510041e-09  4.5450891958725092e-09  2.0798698222629310e-09  9.3019891119067620e-10  4.0712063518978193e-10  1.7457613591315159e-10  7.3421886707882537e-11  3.0315888513468704e-11  1.2298194017892350e-11  4.8908635456409258e-12  1.8097248011828780e-12  0.0000000000000000e+00  6.0000000000000002e-05  5.6262902012911925e-05  5.4144515384342851e-05  5.2190219386595614e-05  4.9837383841857507e-05  4.7009277205175281e-05  4.3855998500587503e-05  4.0627292943675993e-05  3.7580450269009424e-05  3.4914758687301072e-05  3.2739498263784181e-05  3.1074453345688457e-05  2.9872004607786413e-05  2.9046336517913720e-05  2.8498037070880522e-05  2.8127732946928780e-05  2.7836539917282872e-05  2.7505731973629517e-05  2.6856354619235057e-05  2.4817411141148734e-05  2.1387416064468242e-05  1.7891479879317529e-05  1.4711883092226256e-05  1.1821050257692668e-05  9.2136552620925512e-06  6.9275655524251580e-06  5.0067035951382911e-06  3.4717827786562790e-06  2.3094104419131074e-06  1.4786007256130430e-06  9.3351342904271582e-07  6.7869509594021224e-07  6.4522055407632095e-07  4.5004803977664664e-07  2.7087383473499291e-07  1.5108211289033384e-07  8.0213464166775884e-08  4.1012933224426289e-08  2.0312500870687054e-08  9.7779992987343158e-09  4.5854222159744193e-09  2.0985361694583193e-09  9.3864122838627555e-10  4.1085566501460417e-10  1.7619425938832552e-10  7.4109059432495800e-11  3.0602235259852366e-11  1.2415393013488232e-11  4.9380396143012165e-12  1.8282379733423417e-12  0.0000000000000000e+00  6.0000000000000002e-05  5.6482353237644863e-05  5.4402102727712396e-05  5.2455109824393230e-05  5.0097950991465343e-05  4.7259393917230584e-05  4.4091856789307811e-05  4.0846828021374917e-05  3.7783275373412414e-05  3.5101963428184542e-05  3.2913219472881642e-05  3.1237340875925921e-05  3.0026737116348770e-05  2.9195285400007874e-05  2.8643100005077905e-05  2.8270308881627363e-05  2.7977663750539700e-05  2.7647004216480512e-05  2.7007536635150278e-05  2.5103899347222250e-05  2.1848713031337866e-05  1.8410103217231906e-05  1.5208144591053575e-05  1.2262559197082533e-05  9.5864964461504454e-06  7.2276930556286037e-06  5.2371140689922491e-06  3.6404935624720365e-06  2.4272673671495804e-06  1.5571021291776909e-06  9.8287411247881253e-07  7.0584238526909305e-07  6.5825185935184020e-07  4.5603700217665913e-07  2.7369280045213131e-07  1.5248065108510956e-07  8.0921777099560729e-08  4.1370154995286678e-08  2.0489666471298783e-08  9.8639582072357076e-09  4.6261564021337734e-09  2.1173887594682223e-09  9.4716862215554148e-10  4.1462881875888049e-10  1.7782912726105597e-10  7.4803441438250918e-11  3.0891626555539525e-11  1.2533853897895678e-11  4.9857260027567346e-12  1.8469048960408884e-12  0.0000000000000000e+00  6.0000000000000002e-05  5.6696550224279632e-05  5.4659025284315209e-05  5.2720732520714764e-05  5.0359672111780643e-05  4.7510764518328159e-05  4.4328954000236488e-05  4.1067540932724047e-05  3.7987198353690082e-05  3.5290181834127056e-05  3.3087875400310126e-05  3.1401095322399035e-05  3.0182282502353491e-05  2.9345006878312584e-05  2.8788907396407547e-05  2.8413611745680114e-05  2.8119513450083872e-05  2.7789085327619327e-05  2.7160690285275552e-05  2.5380531168137558e-05  2.2287137162112508e-05  1.8914398380067801e-05  1.5699614270131058e-05  1.2705211971451513e-05  9.9636460606276823e-06  7.5334031189398866e-06  5.4731580866285528e-06  3.8141829775413441e-06  2.5491338332883619e-06  1.6386008083802482e-06  1.0343603837951619e-06  7.3465567540357369e-07  6.7221887360102944e-07  4.6230615744724959e-07  2.7659455461412061e-07  1.5390594498134594e-07  8.1639923608096024e-08  4.1731452343769781e-08  2.0668660268689792e-08  9.9507672462594879e-09  4.6672886035067750e-09  2.1364260343939529e-09  9.5578032753838247e-10  4.1843972833060352e-10  1.7948056673290297e-10  7.5504953644242700e-11  3.1184027090629605e-11  1.2653561265839787e-11  5.0339162087853284e-12  1.8657256965625657e-12  0.0000000000000000e+00  6.0000000000000002e-05  5.6905802367065887e-05  5.4915356769166576e-05  5.2987115807812077e-05  5.0622561454881635e-05  4.7763398629099405e-05  4.4567297913692808e-05  4.1289438388727172e-05  3.8192225071952262e-05  3.5479419041616975e-05  3.3263470594631571e-05  3.1565720798398114e-05  3.0338644586821334e-05  2.9495504595705156e-05  2.8935462783609502e-05  2.8557644961121529e-05  2.8262091774964904e-05  2.7931973997986977e-05  2.7315669203435134e-05  2.5648829024506906e-05  2.2705369239226705e-05  1.9404979429325680e-05  1.6186302650482187e-05  1.3149014729372560e-05  1.0345207966349096e-05  7.8448767382082017e-06  5.7150510800120068e-06  3.9930640901070818e-06  2.6751965981674215e-06  1.7232452312259896e-06  1.0880758122491710e-06  7.6515691497043006e-07  6.8711485780920261e-07  4.6884999739051094e-07  2.7957730667582222e-07  1.5535751919644728e-07  8.2367778437432287e-08  4.2096789774577695e-08  2.0849470600446384e-08  1.0038421822810449e-08  4.7088167411666587e-09  2.1556469884491329e-09  9.6447585108018857e-10  4.2228815455172348e-10  1.8114846444622117e-10  7.6213543675457074e-11  3.1479413274183924e-11  1.2774504748159926e-11  5.0826058884997923e-12  1.8847015518384981e-12  0.0000000000000000e+00  6.0000000000000002e-05  5.7110444982447578e-05  5.5171179541550380e-05  5.3254290706938382e-05  5.0886634054836020e-05  4.8017306066072766e-05  4.4806896353235347e-05  4.1512527134684120e-05  3.8398361456446683e-05  3.5669680285690722e-05  3.3440009721127811e-05  3.1731221535708145e-05  3.0495827298684167e-05  2.9646782285900064e-05  2.9082769777354825e-05  2.8702412000845570e-05  2.8405401485819267e-05  2.8075668414293629e-05  2.7472341031711220e-05  2.5910125293259093e-05  2.3105912686523427e-05  1.9882676088962118e-05  1.6668388958857761e-05  1.3594086980167850e-05  1.0731366416775015e-05  8.1623545410966822e-06  5.9630533725458361e-06  4.1773834724321691e-06  2.8056668322128476e-06  1.8112008836871782e-06  1.1441343415374733e-06  7.9737783834118948e-07  7.0293126419024549e-07  4.7566202604621137e-07  2.8263901633808116e-07  1.5683484546825639e-07  8.3105209386415205e-08  4.2466133583808999e-08  2.1032088131108297e-08  1.0126918890527397e-08  4.7507396027247730e-09  2.1750510641234127e-09  9.7325492009369219e-10  4.2617396309642825e-10  1.8283275537860966e-10  7.6929180863664258e-11  3.1777771035582478e-11  1.2896678064887276e-11  5.1317924518217652e-12  1.9038344728834998e-12  0.0000000000000000e+00  6.0000000000000002e-05  5.7310833404358300e-05  5.5426584297792002e-05  5.3522290836358767e-05  5.1151905716055735e-05  4.8272496851996992e-05  4.5047757197042871e-05  4.1736813954690766e-05  3.8605613497336036e-05  3.5860970888505157e-05  3.3617497546212984e-05  3.1897601868012849e-05  3.0653834659559891e-05  2.9798843760906015e-05  2.9230832050784869e-05  2.8847916382171819e-05  2.8549445342274309e-05  2.8220166245716006e-05  2.7630586238280130e-05  2.6165593895175186e-05  2.3491098250931058e-05  2.0348500825857141e-05  1.7146220719636590e-05  1.4040667948790636e-05  1.1122392674986604e-05  8.4861423344747946e-06  6.2174745111530518e-06  4.3674244463145642e-06  2.9407824624319178e-06  1.9026519144075337e-06  1.2026615174956121e-06  8.3135926390602024e-07  7.1965768702566457e-07  4.8273476155604372e-07  2.8577739903909290e-07  1.5833734255569207e-07  8.3852076195469184e-08  4.2839450956060641e-08  2.1216505288754321e-08  1.0216256633456588e-08  4.7930566753045859e-09  2.1946380676847728e-09  9.8211744137474428e-10  4.3009710492070483e-10  1.8453341381499160e-10  7.7651852185818442e-11  3.2079094039204646e-11  1.3020078256739867e-11  5.1814747341132241e-12  1.9231271326766792e-12  0.0000000000000000e+00  6.0000000000000002e-05  5.7507338297283514e-05  5.5681669735695075e-05  5.3791152311052572e-05  5.1418392996134070e-05  4.8528981221990378e-05  4.5289888386533933e-05  4.1962305675060197e-05  3.8813987243067918e-05  3.6053296249821741e-05  3.3795938924525711e-05  3.2064866217189031e-05  3.0812670771203985e-05  2.995169290070694