<?xml version="1.0"?>
<VTKFile type="UnstructuredGrid"  version="0.1"  >
<UnstructuredGrid>
<Piece  NumberOfPoints="2601" NumberOfCells="5000">
<Points>
<DataArray  type="Float64"  NumberOfComponents="3"  format="ascii">-1 0 0  -0.96 0 0  -0.92 0 0  -0.88 0 0  -0.84 0 0  -0.8 0 0  -0.76 0 0  -0.72 0 0  -0.6799999999999999 0 0  -0.64 0 0  -0.6 0 0  -0.5600000000000001 0 0  -0.52 0 0  -0.48 0 0  -0.4399999999999999 0 0  -0.4 0 0  -0.36 0 0  -0.32 0 0  -0.28 0 0  -0.24 0 0  -0.2 0 0  -0.16 0 0  -0.12 0 0  -0.07999999999999996 0 0  -0.04000000000000004 0 0  0 0 0  0.04000000000000004 0 0  0.08000000000000007 0 0  0.1200000000000001 0 0  0.1599999999999999 0 0  0.2 0 0  0.24 0 0  0.28 0 0  0.3200000000000001 0 0  0.3600000000000001 0 0  0.3999999999999999 0 0  0.4399999999999999 0 0  0.48 0 0  0.52 0 0  0.5600000000000001 0 0  0.6000000000000001 0 0  0.6399999999999999 0 0  0.6799999999999999 0 0  0.72 0 0  0.76 0 0  0.8 0 0  0.8400000000000001 0 0  0.8799999999999999 0 0  0.9199999999999999 0 0  0.96 0 0  1 0 0  -1 0.016 0  -0.96 0.016 0  -0.92 0.016 0  -0.88 0.016 0  -0.84 0.016 0  -0.8 0.016 0  -0.76 0.016 0  -0.72 0.016 0  -0.6799999999999999 0.016 0  -0.64 0.016 0  -0.6 0.016 0  -0.5600000000000001 0.016 0  -0.52 0.016 0  -0.48 0.016 0  -0.4399999999999999 0.016 0  -0.4 0.016 0  -0.36 0.016 0  -0.32 0.016 0  -0.28 0.016 0  -0.24 0.016 0  -0.2 0.016 0  -0.16 0.016 0  -0.12 0.016 0  -0.07999999999999996 0.016 0  -0.04000000000000004 0.016 0  0 0.016 0  0.04000000000000004 0.016 0  0.08000000000000007 0.016 0  0.1200000000000001 0.016 0  0.1599999999999999 0.016 0  0.2 0.016 0  0.24 0.016 0  0.28 0.016 0  0.3200000000000001 0.016 0  0.3600000000000001 0.016 0  0.3999999999999999 0.016 0  0.4399999999999999 0.016 0  0.48 0.016 0  0.52 0.016 0  0.5600000000000001 0.016 0  0.6000000000000001 0.016 0  0.6399999999999999 0.016 0  0.6799999999999999 0.016 0  0.72 0.016 0  0.76 0.016 0  0.8 0.016 0  0.8400000000000001 0.016 0  0.8799999999999999 0.016 0  0.9199999999999999 0.016 0  0.96 0.016 0  1 0.016 0  -1 0.032 0  -0.96 0.032 0  -0.92 0.032 0  -0.88 0.032 0  -0.84 0.032 0  -0.8 0.032 0  -0.76 0.032 0  -0.72 0.032 0  -0.6799999999999999 0.032 0  -0.64 0.032 0  -0.6 0.032 0  -0.5600000000000001 0.032 0  -0.52 0.032 0  -0.48 0.032 0  -0.4399999999999999 0.032 0  -0.4 0.032 0  -0.36 0.032 0  -0.32 0.032 0  -0.28 0.032 0  -0.24 0.032 0  -0.2 0.032 0  -0.16 0.032 0  -0.12 0.032 0  -0.07999999999999996 0.032 0  -0.04000000000000004 0.032 0  0 0.032 0  0.04000000000000004 0.032 0  0.08000000000000007 0.032 0  0.1200000000000001 0.032 0  0.1599999999999999 0.032 0  0.2 0.032 0  0.24 0.032 0  0.28 0.032 0  0.3200000000000001 0.032 0  0.3600000000000001 0.032 0  0.3999999999999999 0.032 0  0.4399999999999999 0.032 0  0.48 0.032 0  0.52 0.032 0  0.5600000000000001 0.032 0  0.6000000000000001 0.032 0  0.6399999999999999 0.032 0  0.6799999999999999 0.032 0  0.72 0.032 0  0.76 0.032 0  0.8 0.032 0  0.8400000000000001 0.032 0  0.8799999999999999 0.032 0  0.9199999999999999 0.032 0  0.96 0.032 0  1 0.032 0  -1 0.04800000000000001 0  -0.96 0.04800000000000001 0  -0.92 0.04800000000000001 0  -0.88 0.04800000000000001 0  -0.84 0.04800000000000001 0  -0.8 0.04800000000000001 0  -0.76 0.04800000000000001 0  -0.72 0.04800000000000001 0  -0.6799999999999999 0.04800000000000001 0  -0.64 0.04800000000000001 0  -0.6 0.04800000000000001 0  -0.5600000000000001 0.04800000000000001 0  -0.52 0.04800000000000001 0  -0.48 0.04800000000000001 0  -0.4399999999999999 0.04800000000000001 0  -0.4 0.04800000000000001 0  -0.36 0.04800000000000001 0  -0.32 0.04800000000000001 0  -0.28 0.04800000000000001 0  -0.24 0.04800000000000001 0  -0.2 0.04800000000000001 0  -0.16 0.04800000000000001 0  -0.12 0.04800000000000001 0  -0.07999999999999996 0.04800000000000001 0  -0.04000000000000004 0.04800000000000001 0  0 0.04800000000000001 0  0.04000000000000004 0.04800000000000001 0  0.08000000000000007 0.04800000000000001 0  0.1200000000000001 0.04800000000000001 0  0.1599999999999999 0.04800000000000001 0  0.2 0.04800000000000001 0  0.24 0.04800000000000001 0  0.28 0.04800000000000001 0  0.3200000000000001 0.04800000000000001 0  0.3600000000000001 0.04800000000000001 0  0.3999999999999999 0.04800000000000001 0  0.4399999999999999 0.04800000000000001 0  0.48 0.04800000000000001 0  0.52 0.04800000000000001 0  0.5600000000000001 0.04800000000000001 0  0.6000000000000001 0.04800000000000001 0  0.6399999999999999 0.04800000000000001 0  0.6799999999999999 0.04800000000000001 0  0.72 0.04800000000000001 0  0.76 0.04800000000000001 0  0.8 0.04800000000000001 0  0.8400000000000001 0.04800000000000001 0  0.8799999999999999 0.04800000000000001 0  0.9199999999999999 0.04800000000000001 0  0.96 0.04800000000000001 0  1 0.04800000000000001 0  -1 0.064 0  -0.96 0.064 0  -0.92 0.064 0  -0.88 0.064 0  -0.84 0.064 0  -0.8 0.064 0  -0.76 0.064 0  -0.72 0.064 0  -0.6799999999999999 0.064 0  -0.64 0.064 0  -0.6 0.064 0  -0.5600000000000001 0.064 0  -0.52 0.064 0  -0.48 0.064 0  -0.4399999999999999 0.064 0  -0.4 0.064 0  -0.36 0.064 0  -0.32 0.064 0  -0.28 0.064 0  -0.24 0.064 0  -0.2 0.064 0  -0.16 0.064 0  -0.12 0.064 0  -0.07999999999999996 0.064 0  -0.04000000000000004 0.064 0  0 0.064 0  0.04000000000000004 0.064 0  0.08000000000000007 0.064 0  0.1200000000000001 0.064 0  0.1599999999999999 0.064 0  0.2 0.064 0  0.24 0.064 0  0.28 0.064 0  0.3200000000000001 0.064 0  0.3600000000000001 0.064 0  0.3999999999999999 0.064 0  0.4399999999999999 0.064 0  0.48 0.064 0  0.52 0.064 0  0.5600000000000001 0.064 0  0.6000000000000001 0.064 0  0.6399999999999999 0.064 0  0.6799999999999999 0.064 0  0.72 0.064 0  0.76 0.064 0  0.8 0.064 0  0.8400000000000001 0.064 0  0.8799999999999999 0.064 0  0.9199999999999999 0.064 0  0.96 0.064 0  1 0.064 0  -1 0.08 0  -0.96 0.08 0  -0.92 0.08 0  -0.88 0.08 0  -0.84 0.08 0  -0.8 0.08 0  -0.76 0.08 0  -0.72 0.08 0  -0.6799999999999999 0.08 0  -0.64 0.08 0  -0.6 0.08 0  -0.5600000000000001 0.08 0  -0.52 0.08 0  -0.48 0.08 0  -0.4399999999999999 0.08 0  -0.4 0.08 0  -0.36 0.08 0  -0.32 0.08 0  -0.28 0.08 0  -0.24 0.08 0  -0.2 0.08 0  -0.16 0.08 0  -0.12 0.08 0  -0.07999999999999996 0.08 0  -0.04000000000000004 0.08 0  0 0.08 0  0.04000000000000004 0.08 0  0.08000000000000007 0.08 0  0.1200000000000001 0.08 0  0.1599999999999999 0.08 0  0.2 0.08 0  0.24 0.08 0  0.28 0.08 0  0.3200000000000001 0.08 0  0.3600000000000001 0.08 0  0.3999999999999999 0.08 0  0.4399999999999999 0.08 0  0.48 0.08 0  0.52 0.08 0  0.5600000000000001 0.08 0  0.6000000000000001 0.08 0  0.6399999999999999 0.08 0  0.6799999999999999 0.08 0  0.72 0.08 0  0.76 0.08 0  0.8 0.08 0  0.8400000000000001 0.08 0  0.8799999999999999 0.08 0  0.9199999999999999 0.08 0  0.96 0.08 0  1 0.08 0  -1 0.09600000000000002 0  -0.96 0.09600000000000002 0  -0.92 0.09600000000000002 0  -0.88 0.09600000000000002 0  -0.84 0.09600000000000002 0  -0.8 0.09600000000000002 0  -0.76 0.09600000000000002 0  -0.72 0.09600000000000002 0  -0.6799999999999999 0.09600000000000002 0  -0.64 0.09600000000000002 0  -0.6 0.09600000000000002 0  -0.5600000000000001 0.09600000000000002 0  -0.52 0.09600000000000002 0  -0.48 0.09600000000000002 0  -0.4399999999999999 0.09600000000000002 0  -0.4 0.09600000000000002 0  -0.36 0.09600000000000002 0  -0.32 0.09600000000000002 0  -0.28 0.09600000000000002 0  -0.24 0.09600000000000002 0  -0.2 0.09600000000000002 0  -0.16 0.09600000000000002 0  -0.12 0.09600000000000002 0  -0.07999999999999996 0.09600000000000002 0  -0.04000000000000004 0.09600000000000002 0  0 0.09600000000000002 0  0.04000000000000004 0.09600000000000002 0  0.08000000000000007 0.09600000000000002 0  0.1200000000000001 0.09600000000000002 0  0.1599999999999999 0.09600000000000002 0  0.2 0.09600000000000002 0  0.24 0.09600000000000002 0  0.28 0.09600000000000002 0  0.3200000000000001 0.09600000000000002 0  0.3600000000000001 0.09600000000000002 0  0.3999999999999999 0.09600000000000002 0  0.4399999999999999 0.09600000000000002 0  0.48 0.09600000000000002 0  0.52 0.09600000000000002 0  0.5600000000000001 0.09600000000000002 0  0.6000000000000001 0.09600000000000002 0  0.6399999999999999 0.09600000000000002 0  0.6799999999999999 0.09600000000000002 0  0.72 0.09600000000000002 0  0.76 0.09600000000000002 0  0.8 0.09600000000000002 0  0.8400000000000001 0.09600000000000002 0  0.8799999999999999 0.09600000000000002 0  0.9199999999999999 0.09600000000000002 0  0.96 0.09600000000000002 0  1 0.09600000000000002 0  -1 0.112 0  -0.96 0.112 0  -0.92 0.112 0  -0.88 0.112 0  -0.84 0.112 0  -0.8 0.112 0  -0.76 0.112 0  -0.72 0.112 0  -0.6799999999999999 0.112 0  -0.64 0.112 0  -0.6 0.112 0  -0.5600000000000001 0.112 0  -0.52 0.112 0  -0.48 0.112 0  -0.4399999999999999 0.112 0  -0.4 0.112 0  -0.36 0.112 0  -0.32 0.112 0  -0.28 0.112 0  -0.24 0.112 0  -0.2 0.112 0  -0.16 0.112 0  -0.12 0.112 0  -0.07999999999999996 0.112 0  -0.04000000000000004 0.112 0  0 0.112 0  0.04000000000000004 0.112 0  0.08000000000000007 0.112 0  0.1200000000000001 0.112 0  0.1599999999999999 0.112 0  0.2 0.112 0  0.24 0.112 0  0.28 0.112 0  0.3200000000000001 0.112 0  0.3600000000000001 0.112 0  0.3999999999999999 0.112 0  0.4399999999999999 0.112 0  0.48 0.112 0  0.52 0.112 0  0.5600000000000001 0.112 0  0.6000000000000001 0.112 0  0.6399999999999999 0.112 0  0.6799999999999999 0.112 0  0.72 0.112 0  0.76 0.112 0  0.8 0.112 0  0.8400000000000001 0.112 0  0.8799999999999999 0.112 0  0.9199999999999999 0.112 0  0.96 0.112 0  1 0.112 0  -1 0.128 0  -0.96 0.128 0  -0.92 0.128 0  -0.88 0.128 0  -0.84 0.128 0  -0.8 0.128 0  -0.76 0.128 0  -0.72 0.128 0  -0.6799999999999999 0.128 0  -0.64 0.128 0  -0.6 0.128 0  -0.5600000000000001 0.128 0  -0.52 0.128 0  -0.48 0.128 0  -0.4399999999999999 0.128 0  -0.4 0.128 0  -0.36 0.128 0  -0.32 0.128 0  -0.28 0.128 0  -0.24 0.128 0  -0.2 0.128 0  -0.16 0.128 0  -0.12 0.128 0  -0.07999999999999996 0.128 0  -0.04000000000000004 0.128 0  0 0.128 0  0.04000000000000004 0.128 0  0.08000000000000007 0.128 0  0.1200000000000001 0.128 0  0.1599
[...]
<PointData  Scalars="f_100"> 
<DataArray  type="Float64"  Name="f_100"  format="ascii">6.0000000000000002e-05  5.3854660867049042e-05  5.1804420453885616e-05  5.0117048352797252e-05  4.8142701795065109e-05  4.5735703594278178e-05  4.2973178050511214e-05  4.0041932282777709e-05  3.7163211795756229e-05  3.4533887453796264e-05  3.2288633101123087e-05  3.0486978794143283e-05  2.9121452655276924e-05  2.8137471699651102e-05  2.7454832433955908e-05  2.6983284183614008e-05  2.6627359256830425e-05  2.6266711534208502e-05  2.5639343835551295e-05  2.1028782246190839e-05  1.5265700835881452e-05  1.2324948768776492e-05  1.0019594610515018e-05  8.0369725246925885e-06  6.2934833243594868e-06  4.7789084809032467e-06  3.5041183269638666e-06  2.4754668226351874e-06  1.6848963618243430e-06  1.1137689945870807e-06  7.5782564299315822e-07  7.4559163189674905e-07  8.5774064108750020e-07  6.3777578355509805e-07  4.0512343997312921e-07  2.3726241650749351e-07  1.3201931251591377e-07  7.0689285516692910e-08  3.6648259703314516e-08  1.8460353082034212e-08  9.0552913098166214e-09  4.3329749402689084e-09  2.0253960249498621e-09  9.2601416145649395e-10  4.1457442695405322e-10  1.8193614802791491e-10  7.8339943503703993e-11  3.3119508506257636e-11  1.3705814792222839e-11  5.2208336586434709e-12  0.0000000000000000e+00  6.0000000000000002e-05  5.4129530057331601e-05  5.2070859600386905e-05  5.0376748365811622e-05  4.8394976237707214e-05  4.5978143633669268e-05  4.3203157121409876e-05  4.0257475147358332e-05  3.7363472254810908e-05  3.4719263922418402e-05  3.2460576733925873e-05  3.0647614961301445e-05  2.9273159505654543e-05  2.8282528814991106e-05  2.7595193866315575e-05  2.7120474336606304e-05  2.6762461095374219e-05  2.6400540677328065e-05  2.5759835344117387e-05  2.1576238106501744e-05  1.6036889587679880e-05  1.2962193853585542e-05  1.0544653648347585e-05  8.4668529169171690e-06  6.6387609303636594e-06  5.0485779782954432e-06  3.7077233111468396e-06  2.6235322892846917e-06  1.7883768359965659e-06  1.1830547843183883e-06  8.0153937147645673e-07  7.5656877581141173e-07  8.6321805195979823e-07  6.4250218769036519e-07  4.0822720344503594e-07  2.3912004950710174e-07  1.3307173401842355e-07  7.1261890375204008e-08  3.6949473979949421e-08  1.8614120562070906e-08  9.1316530064393634e-09  4.3699323358503150e-09  2.0428542144543893e-09  9.3407437652130675e-10  4.1821581514191384e-10  1.8354769203806880e-10  7.9039336807788045e-11  3.3417466856949922e-11  1.3830683214614416e-11  5.2733761235504497e-12  0.0000000000000000e+00  6.0000000000000002e-05  5.4400325601576843e-05  5.2336458443825669e-05  5.0637066907342890e-05  4.8648311688824340e-05  4.6221759140539957e-05  4.3434314074453366e-05  4.0474155192765220e-05  3.7564810046969655e-05  3.4905649624986920e-05  3.2633460402963134e-05  3.0809126366139553e-05  2.9425685067865280e-05  2.8428358448069718e-05  2.7736292426995796e-05  2.7258377452356895e-05  2.6898273605587252e-05  2.6535204757223579e-05  2.5884603755628759e-05  2.2077159326928860e-05  1.6801127412450626e-05  1.3597293787369417e-05  1.1073358874576072e-05  8.9028302069580885e-06  6.9909145217376402e-06  5.3249568156928784e-06  3.9173181088798663e-06  2.7765876954789067e-06  1.8957686405966973e-06  1.2552243290366074e-06  8.4708263124435207e-07  7.7122422147533192e-07  8.6996109942286178e-07  6.4763542050902943e-07  4.1145933654409636e-07  2.4102258758089767e-07  1.3414237206458161e-07  7.1842877633621693e-08  3.7254833264997382e-08  1.8769990722611836e-08  9.2090795249773560e-09  4.4074210335674884e-09  2.0605721741951126e-09  9.4225882145110592e-10  4.2191530267047328e-10  1.8518582214918460e-10  7.9750643605933579e-11  3.3720658680477584e-11  1.3957803326943849e-11  5.3267016052051083e-12  0.0000000000000000e+00  6.0000000000000002e-05  5.4666249488279924e-05  5.2601178678453604e-05  5.0898000840599549e-05  4.8902715026590373e-05  4.6466559833907495e-05  4.3666658513526096e-05  4.0691980490939030e-05  3.7767231139741623e-05  3.5093048464228376e-05  3.2807286394932122e-05  3.0971514307075218e-05  2.9579030256002794e-05  2.8574961583603248e-05  2.7878129438097715e-05  2.7396995266718137e-05  2.7034798604733039e-05  2.6670696520457163e-05  2.6013380087384817e-05  2.2537812294694986e-05  1.7539337028208512e-05  1.4226846712621786e-05  1.1604243340905253e-05  9.3441430905038104e-06  7.3495539490583102e-06  5.6078595761979525e-06  4.1328259454893852e-06  2.9346088552417668e-06  2.0070705098791028e-06  1.3302908698848244e-06  8.9455434733669323e-07  7.8913327168057115e-07  8.7799071977603603e-07  6.5318190552452415e-07  4.1482118812819370e-07  2.4296989353625221e-07  1.3523086830020788e-07  7.2431958732869691e-08  3.7564149929887622e-08  1.8927852493701516e-08  9.2875087852327903e-09  4.4454077872561920e-09  2.0785327220061471e-09  9.5055889070298202e-10  4.2566870084836909e-10  1.8684855260757757e-10  8.0472945288853326e-11  3.4028668263694999e-11  1.4086988669034734e-11  5.3807150448128022e-12  0.0000000000000000e+00  6.0000000000000002e-05  5.4926742241117549e-05  5.2864997864751170e-05  5.1159550537747066e-05  4.9158193669948411e-05  4.6712555079623341e-05  4.3900199555651561e-05  4.0910958808604899e-05  3.7970741492252483e-05  3.5281464626378844e-05  3.2982057494763755e-05  3.1134780689660254e-05  2.9733196601357771e-05  2.8722339762634480e-05  2.8020706679196507e-05  2.7536329863081489e-05  2.7172038154493850e-05  2.6807011404500173e-05  2.6145892686500930e-05  2.2963775272986620e-05  1.8242323923340468e-05  1.4848389242455693e-05  1.2136021503049463e-05  9.7901071523151185e-06  7.7143374269810141e-06  5.8971424254272281e-06  4.3542119233163108e-06  3.0976143048415552e-06  2.1223219566622879e-06  1.4083010560528262e-06  9.4405409203649209e-07  8.0998678916209660e-07  8.8732435942648831e-07  6.5914655839015119e-07  4.1831369286151985e-07  2.4496181913660240e-07  1.3633692803609767e-07  7.3028901795237541e-08  3.7877274088248403e-08  1.9087617294801528e-08  9.3668912936800230e-09  4.4838660892168447e-09  2.0967221557511068e-09  9.5896772046827028e-10  4.2947266831564362e-10  1.8853429922428922e-10  8.1205508982107678e-11  3.4341163947905568e-11  1.4218090530305629e-11  5.4353434577208405e-12  0.0000000000000000e+00  6.0000000000000002e-05  5.5181439472298782e-05  5.3127907383779179e-05  5.1421719764671388e-05  4.9414755648033056e-05  4.6959754009733823e-05  4.4134945940666198e-05  4.1131097674779150e-05  3.8175347066957814e-05  3.5470902539519396e-05  3.3157776904372304e-05  3.1298927924476688e-05  2.9888186147157444e-05  2.8870494987036043e-05  2.8164026308624777e-05  2.7676383611639145e-05  2.7309994505294111e-05  2.6944146748908277e-05  2.6281874548795146e-05  2.3359940482891798e-05  1.8906638501045305e-05  1.5459937222905379e-05  1.2667539094330793e-05  1.0240098432408700e-05  8.0849619423714941e-06  6.1926940873269567e-06  4.5814723126052021e-06  3.2656528127932119e-06  2.2415902411501674e-06  1.4893237634606356e-06  9.9567986938193074e-07  8.3356103752955479e-07  8.9797578337250439e-07  6.6553281334052709e-07  4.2193737421175801e-07  2.4699818844861334e-07  1.3746030388805182e-07  7.3633520059366225e-08  3.8194086368209059e-08  1.9249214816766410e-08  9.4471877976070033e-09  4.5227749153269565e-09  2.1151296043568684e-09  9.6747986315062781e-10  4.3332455228599646e-10  1.9024180394521711e-10  8.1947752570359366e-11  3.4657882263305094e-11  1.4350990821067638e-11  5.4905316872405325e-12  0.0000000000000000e+00  6.0000000000000002e-05  5.5430135828285010e-05  5.3389911006503470e-05  5.1684515588906518e-05  4.9672409657178983e-05  4.7208165620646232e-05  4.4370906121256448e-05  4.1352404435924732e-05  3.8381053838792071e-05  3.5661366838832731e-05  3.3334448175472716e-05  3.1463958842976236e-05  3.0044001361978712e-05  2.9019429641080347e-05  2.8308090798918776e-05  2.7817159119695550e-05  2.7448670052383931e-05  2.7082101164609244e-05  2.6421068463533938e-05  2.3730558514253361e-05  1.9532097804243845e-05  1.6059856820798119e-05  1.3197763160060204e-05  1.0693550357512875e-05  8.4611613777049486e-06  6.4944330472655484e-06  4.8146301103839666e-06  3.4387975188042892e-06  2.3649639404258525e-06  1.5734444913798574e-06  1.0495285304108563e-06  8.5969615529620396e-07  9.0995509868032568e-07  6.7234264149098709e-07  4.2569234678526088e-07  2.4907878412887849e-07  1.3860078238130121e-07  7.4245662431090199e-08  3.8514492014707716e-08  1.9412589583423603e-08  9.5283673744674481e-09  4.5621177037556176e-09  2.1337465000355044e-09  9.7609102281194743e-10  4.3722225960625769e-10  1.9197007362569993e-10  8.2699216324607395e-11  3.4978615065749433e-11  1.4485596295697275e-11  5.5462389536329367e-12  0.0000000000000000e+00  6.0000000000000002e-05  5.5672755120124739e-05  5.3651023896607456e-05  5.1947948301732403e-05  4.9931165106718655e-05  4.7457798853550919e-05  4.4608088336779430e-05  4.1574886300985883e-05  3.8587867802287869e-05  3.5852862337636657e-05  3.3512075154033489e-05  3.1629876628112648e-05  3.0200645068524159e-05  2.9169146427028188e-05  2.8452902883882674e-05  2.7958659191031688e-05  2.7588067301221962e-05  2.7220874036164273e-05  2.6563230449926147e-05  2.4079301869301190e-05  2.0120308262034067e-05  1.6646852451507914e-05  1.3725786475692429e-05  1.1149957215710359e-05  8.8427087770870920e-06  6.8023082464789138e-06  5.0537341605837995e-06  3.6171438271629576e-06  2.4925502236411773e-06  1.6607628663342360e-06  1.1056973113248269e-06  8.8828072360538492e-07  9.2326889513978590e-07  6.7957656257691723e-07  4.2957831845482080e-07  2.5120333624211876e-07  1.3975817301208689e-07  7.4865205770579097e-08  3.8838416078910635e-08  1.9577698149102854e-08  9.6104058757999660e-09  4.6018815238134097e-09  2.1525661490661257e-09  9.8479784016683638e-10  4.4116415203233803e-10  1.9371833033429939e-10  8.3459539885650676e-11  3.5303199107600974e-11  1.4621833871047014e-11  5.6024360518508451e-12  0.0000000000000000e+00  6.0000000000000002e-05  5.5909325626316143e-05  5.3911271910559138e-05  5.2212031347932389e-05  5.0191032154635787e-05  4.7708662659960377e-05  4.4846500673682889e-05  4.1798550378127386e-05  3.8795794977090861e-05  3.6045394003237471e-05  3.3690661934352069e-05  3.1796684757168365e-05  3.0358120385036724e-05  2.9319648312231995e-05  2.8598465515182920e-05  2.8100886792687001e-05  2.7728188840223569e-05  2.7360465134968575e-05  2.6708131871776790e-05  2.4409334414394884e-05  2.0673791941725441e-05  1.7219980048512477e-05  1.4250836515224266e-05  1.1608880800031381e-05  9.2294208530713009e-06  7.1163017686351693e-06  5.2988603310955203e-06  3.8008094548170415e-06  2.6244742302520553e-06  1.7513918969807794e-06  1.1642857621087320e-06  9.1924066625767033e-07  9.3792043790393426e-07  6.8723365172432652e-07  4.3359459264574514e-07  2.5337151326740564e-07  1.4093229934874846e-07  7.5492048605021222e-08  3.9165799496357966e-08  1.9744506814950920e-08  9.6932846600086522e-09  4.6420563995529263e-09  2.1715833827296367e-09  9.9359771784311470e-10  4.4514896117188640e-10  1.9548597101388024e-10  8.4228443592208446e-11  3.5631507581857378e-11  1.4759646832140716e-11  5.6591030785165174e-12  0.0000000000000000e+00  6.0000000000000002e-05  5.6139959720185077e-05  5.4170691093805526e-05  5.2476781258502536e-05  5.0452021734015016e-05  4.7960766054737895e-05  4.5086151114842043e-05  4.2023403704671933e-05  3.9004841412207210e-05  3.6238966936803366e-05  3.3870212821086877e-05  3.1964386954632142e-05  3.0516430677110352e-05  2.9470938485695610e-05  2.8744781826759269e-05  2.8243845027819427e-05  2.7869037319357372e-05  2.7500874324251807e-05  2.6855560544890181e-05  2.4723379520247931e-05  2.1195476241955908e-05  1.7778652201951200e-05  1.4772285162782636e-05  1.2069958463923782e-05  9.6211637050867026e-06  7.4364326905156604e-06  5.5501139092241418e-06  3.9899357433217390e-06  2.7608796645425729e-06  1.8454582350798493e-06  1.2253977325377884e-06  9.5253124993544894e-07  9.5390986925420750e-07  6.9531154274271224e-07  4.3774007107404460e-07  2.5558291500312423e-07  1.4212299182837154e-07  7.6126106012393009e-08  3.9496595891793794e-08  1.9912989768468005e-08  9.7769895604688289e-09  4.6826347593131130e-09  2.1907942734226557e-09  1.0024886783624362e-09  4.4917571939751437e-10  1.9727253473667957e-10  8.5005713332913920e-11  3.5963443265883289e-11  1.4898991756645220e-11  5.7162275905574280e-12  0.0000000000000000e+00  6.0000000000000002e-05  5.6364837111346188e-05  5.4429327299040440e-05  5.2742217582913354e-05  5.0714145571116795e-05  4.8214118158585133e-05  4.5327047579721929e-05  4.2249453271458285e-05  3.9215013189250991e-05  3.6433586356589336e-05  3.4050732297867339e-05  3.2132987153360035e-05  3.0675579518050952e-05  2.9623020322399658e-05  2.8891855105646297e-05  2.8387537113546569e-05  2.8010615433402270e-05  2.7642101339398171e-05  2.7005321089489493e-05  2.5023783243038868e-05  2.1688402002032367e-05  1.8322627425113978e-05  1.5289657554810568e-05  1.2532911635006428e-05  1.0017859181702385e-05  7.7627616344962122e-06  5.8076327460753691e-06  4.1846897381114879e-06  2.9019301160687588e-06  1.9431030332503511e-06  1.2891432830398907e-06  9.8813131640888822e-07  9.7123439186938153e-07  7.0380642928422992e-07  4.4201325717240417e-07  2.5783706712681458e-07  1.4333008196564334e-07  7.6767305467924568e-08  3.9830768978308893e-08  2.0083127568314191e-08  9.8615100453335874e-09  4.7236109877543933e-09  2.2101959037689674e-09  1.0114692487065013e-09  4.5324370372774068e-10  1.9907767612169220e-10  8.5791188256161534e-11  3.6298932961696450e-11  1.5039836021564143e-11  5.7738031158307793e-12  0.0000000000000000e+00  6.0000000000000002e-05  5.6584191106170703e-05  5.4687235873224103e-05  5.3008362818475131e-05  5.0977416195807801e-05  4.8468728231624340e-05  4.5569197956937182e-05  4.2476706042620830e-05  3.9426316424903029e-05  3.6629257583954645e-05  3.4232225001340476e-05  3.2302489462561068e-05  3.0835570656267986e-05  2.9775897354002410e-05  2.9039688768051383e-05  2.8531966362868963e-05  2.8152925908935485e-05  2.7784145629517387e-05  2.7157234727288534e-05  2.5312570983968363e-05  2.2155562411834146e-05  1.8851985840013484e-05  1.5802639282714285e-05  1.2997554257843968e-05  1.0419491565907289e-05  8.0953957605986849e-06  6.0715908852562684e-06  4.3852667578209119e-06  3.0478108350118918e-06  2.0444831745568444e-06  1.3556404845576612e-06  1.0260391309575155e-06  9.8988841630240067e-07  7.1271306505697645e-07  4.4641226039249615e-07  2.6013341720398570e-07  1.4455339774035550e-07  7.7415583482550322e-08  4.0168290442643549e-08  2.0254905910791994e-08  9.9468385334896374e-09  4.7649810612880372e-09  2.2297861788172950e-09  1.0205383664811977e-09  4.5735239023580900e-10  2.0090114375185035e-10  8.6584750797318153e-11  3.6637922987015202e-11  1.5182155781482942e-11  5.8318279506830277e-12  0.0000000000000000e+00  6.0000000000000002e-05  5.6798297388898135e-05  5.4944481375780296e-05  5.3275242335051000e-05  5.1241846944992708e-05  4.8724605699435476e-05  4.5812610130505093e-05  4.2705168971609950e-05  3.9638757272748356e-05  3.6825986031705830e-05  3.4414695699709429e-05  3.2472898141404453e-05  3.0996407988445795e-05  2.9929573244773618e-05  2.9188286339741657e-05  2.8677136169938450e-05  2.8295971494324659e-05  2.7927006248357496e-05  2.7311138679260421e-05  2.5591497246674916e-05  2.2599819809535638e-05  1.9367096403242939e-05  1.6311081598869456e-05  1.3463800873678581e-05  1.0826114396960240e-05  8.4344940460298580e-06  6.3422025251385422e-06  4.5918932983053504e-06  3.1987308127462245e-06  2.1497727503912646e-06  1.4250171149861483e-06  1.0662694077519227e-06  1.0098636622988855e-06  7.2202476413600287e-07  4.5093480153374460e-07  2.6247133197165183e-07  1.4579275997087736e-07  7.8070882893442405e-08  4.0509138228261602e-08  2.0428314626112974e-08  1.0032969837684466e-08  4.8067422513479745e-09  2.2495636732601184e-09  1.0296953036228178e-09  4.6150141700366130e-10  2.0274276264687493e-10  8.7386318584610288e-11  3.6980375517682528e-11  1.5325934328657804e-11  5.8903041913177762e-12  0.0000000000000000e+00  6.0000000000000002e-05  5.7007464906098297e-05  5.5201137302241708e-05  5.3542884293871923e-05  5.1507451959621136e-05  4.8981760172681798e-05  4.6057292000860784e-05  4.2934849014124642e-05  3.9852341924624116e-05  3.7023777194374905e-05  3.4598149274981363e-05  3.2644217577255164e-05  3.1158095537463949e-05  3.0084051771821698e-05  2.9337651439961901e-05  2.8823049998067273e-05  2.8439754952154648e-05  2.8070681784566449e-05  2.7466885284573399e-05  2.5862088750001787e-05  2.3023868445636187e-05  1.9868580635327609e-05  1.6815004548356996e-05  1.3931674184880514e-05  1.1237857317505859e-05  8.7802727613631978e-06  6.6197262273661603e-06  4.8048301837992188e-06  3.3549250849701850e-06  2.2591647190289117e-06  1.4974122766638067e-06  1.1088511971817368e-06  1.0311492081779893e-06  7.3173340229407105e-07  4.5557821921694436e-07  2.6485009574863866e-07  1.4704797951445987e-07  7.8733150691902287e-08  4.0853295143930353e-08  2.0603346862091982e-08  1.0119900711198218e-08  4.8488928828365225e-09  2.2695275071087022e-09  1.0389396043473881e-09  4.6569055400943681e-10  2.0460242002485949e-10  8.8195837867540213e-11  3.7326265619688286e-11  1.5471160762213990e-11  5.9492369555764390e-12  0.0000000000000000e+00  6.0000000000000002e-05  5.7212028505129769e-05  5.5457285796419375e-05  5.3811319559587454e-05  5.1774246175782676e-05  4.9240201461270249e-05  4.6303251501516872e-05  4.3165753138507604e-05  4.0067076611582104e-05  3.7222636640106346e-05  3.4782590708276761e-05  3.2816452267717714e-05  3.1320637434217652e-05  3.0239336808841369e-05  2.9487787768244396e-05  2.8969711369982109e-05  2.8584279053642301e-05  2.8215170322991591e-05  2.7624340932474796e-05  2.6125681468862851e-05  2.3430223996454551e-05  2.0357276663688078e-05  1.7314598165588507e-05  1.4401312039040736e-05  1.1654932878607371e-05  9.1330110871458639e-06  6.9044693197656101e-06  5.0243759153402477e-06  3.5166572117724458e-06  2.3728727081737911e-06  1.5729779636806829e-06  1.1538264080700445e-06  1.0537314854758046e-06  7.4182942017908821e-07  4.6033947759455584e-07  2.6726890984648798e-07  1.4831885516271209e-07  7.9402336294449047e-08  4.1200747738687436e-08  2.0779998420678792e-08  1.0207629478788398e-08  4.8914321374200704e-09  2.2896772444786681e-09  1.0482710346587403e-09  4.6991967863798114e-10  2.0648005372934049e-10  8.9013278178584550e-11  3.7675578839475320e-11  1.5617828907458155e-11  6.0086337596726714e-12  0.0000000000000000e+00  6.0000000000000002e-05  5.7412343034155360e-05  5.5713017340623546e-05  5.4080581604974153e-05  5.2042245310353127e-05  4.9499939583839404e-05  4.6550496612097927e-05  4.3397888334054643e-05  4.0282967604547889e-05  3.7422570003879798e-05  3.4968025067662533e-05  3.2989606805810615e-05  3.1484037902638133e-05  3.0395432312745379e-05  2.9638699093585098e-05  2.9117123859915592e-05  2.8729546574687141e-05  2.8360469430171519e-05  2.7783384875998508e-05  2.6383452303604528e-05  2.3821228303138003e-05  2.0834206113066404e-05  1.7810222035438647e-05  1.4872973825425724e-05  1.2077643262824732e-05  9.4930568348581584e-06  7.1967924618043695e-06  5.2508701875565806e-06  3.6842219094318652e-06  2.4911329420103495e-06  1.6518806065483329e-06  1.2012488002870972e-06  1.0775942179391587e-06  7.5230182909636657e-07  4.6521517536678057e-07  2.6972689287273026e-07  1.4960517212307580e-07  8.0078390179725961e-08  4.1551485394788992e-08  2.0958267219058980e-08  1.0296155736177434e-08  4.9343598932560720e-09  2.3100128111305721e-09  1.0576895412297503e-09  4.7418875574809359e-10  2.0837564281508058e-10  8.9838627993127660e-11  3.8028309245881644e-11  1.5765936437423552e-11  6.0685040208907531e-12  0.0000000000000000e+00  6.0000000000000002e-05  5.7608778658928373e-05  5.5968430418104617e-05  5.4350706407947077e-05  5.2311465841613508e-05  4.9760984773241737e-05  4.6799035368354489e-05  4.3631261617609632e-05  4.0500021214740876e-05  3.7623582981840010e-05  3.5154457498063301e-05  3.3163685867711069e-05  3.1648301247335067e-05  3.055234231265611