<?xml version="1.0"?>
<VTKFile type="UnstructuredGrid"  version="0.1"  >
<UnstructuredGrid>
<Piece  NumberOfPoints="2601" NumberOfCells="5000">
<Points>
<DataArray  type="Float64"  NumberOfComponents="3"  format="ascii">-1 0 0  -0.96 0 0  -0.92 0 0  -0.88 0 0  -0.84 0 0  -0.8 0 0  -0.76 0 0  -0.72 0 0  -0.6799999999999999 0 0  -0.64 0 0  -0.6 0 0  -0.5600000000000001 0 0  -0.52 0 0  -0.48 0 0  -0.4399999999999999 0 0  -0.4 0 0  -0.36 0 0  -0.32 0 0  -0.28 0 0  -0.24 0 0  -0.2 0 0  -0.16 0 0  -0.12 0 0  -0.07999999999999996 0 0  -0.04000000000000004 0 0  0 0 0  0.04000000000000004 0 0  0.08000000000000007 0 0  0.1200000000000001 0 0  0.1599999999999999 0 0  0.2 0 0  0.24 0 0  0.28 0 0  0.3200000000000001 0 0  0.3600000000000001 0 0  0.3999999999999999 0 0  0.4399999999999999 0 0  0.48 0 0  0.52 0 0  0.5600000000000001 0 0  0.6000000000000001 0 0  0.6399999999999999 0 0  0.6799999999999999 0 0  0.72 0 0  0.76 0 0  0.8 0 0  0.8400000000000001 0 0  0.8799999999999999 0 0  0.9199999999999999 0 0  0.96 0 0  1 0 0  -1 0.016 0  -0.96 0.016 0  -0.92 0.016 0  -0.88 0.016 0  -0.84 0.016 0  -0.8 0.016 0  -0.76 0.016 0  -0.72 0.016 0  -0.6799999999999999 0.016 0  -0.64 0.016 0  -0.6 0.016 0  -0.5600000000000001 0.016 0  -0.52 0.016 0  -0.48 0.016 0  -0.4399999999999999 0.016 0  -0.4 0.016 0  -0.36 0.016 0  -0.32 0.016 0  -0.28 0.016 0  -0.24 0.016 0  -0.2 0.016 0  -0.16 0.016 0  -0.12 0.016 0  -0.07999999999999996 0.016 0  -0.04000000000000004 0.016 0  0 0.016 0  0.04000000000000004 0.016 0  0.08000000000000007 0.016 0  0.1200000000000001 0.016 0  0.1599999999999999 0.016 0  0.2 0.016 0  0.24 0.016 0  0.28 0.016 0  0.3200000000000001 0.016 0  0.3600000000000001 0.016 0  0.3999999999999999 0.016 0  0.4399999999999999 0.016 0  0.48 0.016 0  0.52 0.016 0  0.5600000000000001 0.016 0  0.6000000000000001 0.016 0  0.6399999999999999 0.016 0  0.6799999999999999 0.016 0  0.72 0.016 0  0.76 0.016 0  0.8 0.016 0  0.8400000000000001 0.016 0  0.8799999999999999 0.016 0  0.9199999999999999 0.016 0  0.96 0.016 0  1 0.016 0  -1 0.032 0  -0.96 0.032 0  -0.92 0.032 0  -0.88 0.032 0  -0.84 0.032 0  -0.8 0.032 0  -0.76 0.032 0  -0.72 0.032 0  -0.6799999999999999 0.032 0  -0.64 0.032 0  -0.6 0.032 0  -0.5600000000000001 0.032 0  -0.52 0.032 0  -0.48 0.032 0  -0.4399999999999999 0.032 0  -0.4 0.032 0  -0.36 0.032 0  -0.32 0.032 0  -0.28 0.032 0  -0.24 0.032 0  -0.2 0.032 0  -0.16 0.032 0  -0.12 0.032 0  -0.07999999999999996 0.032 0  -0.04000000000000004 0.032 0  0 0.032 0  0.04000000000000004 0.032 0  0.08000000000000007 0.032 0  0.1200000000000001 0.032 0  0.1599999999999999 0.032 0  0.2 0.032 0  0.24 0.032 0  0.28 0.032 0  0.3200000000000001 0.032 0  0.3600000000000001 0.032 0  0.3999999999999999 0.032 0  0.4399999999999999 0.032 0  0.48 0.032 0  0.52 0.032 0  0.5600000000000001 0.032 0  0.6000000000000001 0.032 0  0.6399999999999999 0.032 0  0.6799999999999999 0.032 0  0.72 0.032 0  0.76 0.032 0  0.8 0.032 0  0.8400000000000001 0.032 0  0.8799999999999999 0.032 0  0.9199999999999999 0.032 0  0.96 0.032 0  1 0.032 0  -1 0.04800000000000001 0  -0.96 0.04800000000000001 0  -0.92 0.04800000000000001 0  -0.88 0.04800000000000001 0  -0.84 0.04800000000000001 0  -0.8 0.04800000000000001 0  -0.76 0.04800000000000001 0  -0.72 0.04800000000000001 0  -0.6799999999999999 0.04800000000000001 0  -0.64 0.04800000000000001 0  -0.6 0.04800000000000001 0  -0.5600000000000001 0.04800000000000001 0  -0.52 0.04800000000000001 0  -0.48 0.04800000000000001 0  -0.4399999999999999 0.04800000000000001 0  -0.4 0.04800000000000001 0  -0.36 0.04800000000000001 0  -0.32 0.04800000000000001 0  -0.28 0.04800000000000001 0  -0.24 0.04800000000000001 0  -0.2 0.04800000000000001 0  -0.16 0.04800000000000001 0  -0.12 0.04800000000000001 0  -0.07999999999999996 0.04800000000000001 0  -0.04000000000000004 0.04800000000000001 0  0 0.04800000000000001 0  0.04000000000000004 0.04800000000000001 0  0.08000000000000007 0.04800000000000001 0  0.1200000000000001 0.04800000000000001 0  0.1599999999999999 0.04800000000000001 0  0.2 0.04800000000000001 0  0.24 0.04800000000000001 0  0.28 0.04800000000000001 0  0.3200000000000001 0.04800000000000001 0  0.3600000000000001 0.04800000000000001 0  0.3999999999999999 0.04800000000000001 0  0.4399999999999999 0.04800000000000001 0  0.48 0.04800000000000001 0  0.52 0.04800000000000001 0  0.5600000000000001 0.04800000000000001 0  0.6000000000000001 0.04800000000000001 0  0.6399999999999999 0.04800000000000001 0  0.6799999999999999 0.04800000000000001 0  0.72 0.04800000000000001 0  0.76 0.04800000000000001 0  0.8 0.04800000000000001 0  0.8400000000000001 0.04800000000000001 0  0.8799999999999999 0.04800000000000001 0  0.9199999999999999 0.04800000000000001 0  0.96 0.04800000000000001 0  1 0.04800000000000001 0  -1 0.064 0  -0.96 0.064 0  -0.92 0.064 0  -0.88 0.064 0  -0.84 0.064 0  -0.8 0.064 0  -0.76 0.064 0  -0.72 0.064 0  -0.6799999999999999 0.064 0  -0.64 0.064 0  -0.6 0.064 0  -0.5600000000000001 0.064 0  -0.52 0.064 0  -0.48 0.064 0  -0.4399999999999999 0.064 0  -0.4 0.064 0  -0.36 0.064 0  -0.32 0.064 0  -0.28 0.064 0  -0.24 0.064 0  -0.2 0.064 0  -0.16 0.064 0  -0.12 0.064 0  -0.07999999999999996 0.064 0  -0.04000000000000004 0.064 0  0 0.064 0  0.04000000000000004 0.064 0  0.08000000000000007 0.064 0  0.1200000000000001 0.064 0  0.1599999999999999 0.064 0  0.2 0.064 0  0.24 0.064 0  0.28 0.064 0  0.3200000000000001 0.064 0  0.3600000000000001 0.064 0  0.3999999999999999 0.064 0  0.4399999999999999 0.064 0  0.48 0.064 0  0.52 0.064 0  0.5600000000000001 0.064 0  0.6000000000000001 0.064 0  0.6399999999999999 0.064 0  0.6799999999999999 0.064 0  0.72 0.064 0  0.76 0.064 0  0.8 0.064 0  0.8400000000000001 0.064 0  0.8799999999999999 0.064 0  0.9199999999999999 0.064 0  0.96 0.064 0  1 0.064 0  -1 0.08 0  -0.96 0.08 0  -0.92 0.08 0  -0.88 0.08 0  -0.84 0.08 0  -0.8 0.08 0  -0.76 0.08 0  -0.72 0.08 0  -0.6799999999999999 0.08 0  -0.64 0.08 0  -0.6 0.08 0  -0.5600000000000001 0.08 0  -0.52 0.08 0  -0.48 0.08 0  -0.4399999999999999 0.08 0  -0.4 0.08 0  -0.36 0.08 0  -0.32 0.08 0  -0.28 0.08 0  -0.24 0.08 0  -0.2 0.08 0  -0.16 0.08 0  -0.12 0.08 0  -0.07999999999999996 0.08 0  -0.04000000000000004 0.08 0  0 0.08 0  0.04000000000000004 0.08 0  0.08000000000000007 0.08 0  0.1200000000000001 0.08 0  0.1599999999999999 0.08 0  0.2 0.08 0  0.24 0.08 0  0.28 0.08 0  0.3200000000000001 0.08 0  0.3600000000000001 0.08 0  0.3999999999999999 0.08 0  0.4399999999999999 0.08 0  0.48 0.08 0  0.52 0.08 0  0.5600000000000001 0.08 0  0.6000000000000001 0.08 0  0.6399999999999999 0.08 0  0.6799999999999999 0.08 0  0.72 0.08 0  0.76 0.08 0  0.8 0.08 0  0.8400000000000001 0.08 0  0.8799999999999999 0.08 0  0.9199999999999999 0.08 0  0.96 0.08 0  1 0.08 0  -1 0.09600000000000002 0  -0.96 0.09600000000000002 0  -0.92 0.09600000000000002 0  -0.88 0.09600000000000002 0  -0.84 0.09600000000000002 0  -0.8 0.09600000000000002 0  -0.76 0.09600000000000002 0  -0.72 0.09600000000000002 0  -0.6799999999999999 0.09600000000000002 0  -0.64 0.09600000000000002 0  -0.6 0.09600000000000002 0  -0.5600000000000001 0.09600000000000002 0  -0.52 0.09600000000000002 0  -0.48 0.09600000000000002 0  -0.4399999999999999 0.09600000000000002 0  -0.4 0.09600000000000002 0  -0.36 0.09600000000000002 0  -0.32 0.09600000000000002 0  -0.28 0.09600000000000002 0  -0.24 0.09600000000000002 0  -0.2 0.09600000000000002 0  -0.16 0.09600000000000002 0  -0.12 0.09600000000000002 0  -0.07999999999999996 0.09600000000000002 0  -0.04000000000000004 0.09600000000000002 0  0 0.09600000000000002 0  0.04000000000000004 0.09600000000000002 0  0.08000000000000007 0.09600000000000002 0  0.1200000000000001 0.09600000000000002 0  0.1599999999999999 0.09600000000000002 0  0.2 0.09600000000000002 0  0.24 0.09600000000000002 0  0.28 0.09600000000000002 0  0.3200000000000001 0.09600000000000002 0  0.3600000000000001 0.09600000000000002 0  0.3999999999999999 0.09600000000000002 0  0.4399999999999999 0.09600000000000002 0  0.48 0.09600000000000002 0  0.52 0.09600000000000002 0  0.5600000000000001 0.09600000000000002 0  0.6000000000000001 0.09600000000000002 0  0.6399999999999999 0.09600000000000002 0  0.6799999999999999 0.09600000000000002 0  0.72 0.09600000000000002 0  0.76 0.09600000000000002 0  0.8 0.09600000000000002 0  0.8400000000000001 0.09600000000000002 0  0.8799999999999999 0.09600000000000002 0  0.9199999999999999 0.09600000000000002 0  0.96 0.09600000000000002 0  1 0.09600000000000002 0  -1 0.112 0  -0.96 0.112 0  -0.92 0.112 0  -0.88 0.112 0  -0.84 0.112 0  -0.8 0.112 0  -0.76 0.112 0  -0.72 0.112 0  -0.6799999999999999 0.112 0  -0.64 0.112 0  -0.6 0.112 0  -0.5600000000000001 0.112 0  -0.52 0.112 0  -0.48 0.112 0  -0.4399999999999999 0.112 0  -0.4 0.112 0  -0.36 0.112 0  -0.32 0.112 0  -0.28 0.112 0  -0.24 0.112 0  -0.2 0.112 0  -0.16 0.112 0  -0.12 0.112 0  -0.07999999999999996 0.112 0  -0.04000000000000004 0.112 0  0 0.112 0  0.04000000000000004 0.112 0  0.08000000000000007 0.112 0  0.1200000000000001 0.112 0  0.1599999999999999 0.112 0  0.2 0.112 0  0.24 0.112 0  0.28 0.112 0  0.3200000000000001 0.112 0  0.3600000000000001 0.112 0  0.3999999999999999 0.112 0  0.4399999999999999 0.112 0  0.48 0.112 0  0.52 0.112 0  0.5600000000000001 0.112 0  0.6000000000000001 0.112 0  0.6399999999999999 0.112 0  0.6799999999999999 0.112 0  0.72 0.112 0  0.76 0.112 0  0.8 0.112 0  0.8400000000000001 0.112 0  0.8799999999999999 0.112 0  0.9199999999999999 0.112 0  0.96 0.112 0  1 0.112 0  -1 0.128 0  -0.96 0.128 0  -0.92 0.128 0  -0.88 0.128 0  -0.84 0.128 0  -0.8 0.128 0  -0.76 0.128 0  -0.72 0.128 0  -0.6799999999999999 0.128 0  -0.64 0.128 0  -0.6 0.128 0  -0.5600000000000001 0.128 0  -0.52 0.128 0  -0.48 0.128 0  -0.4399999999999999 0.128 0  -0.4 0.128 0  -0.36 0.128 0  -0.32 0.128 0  -0.28 0.128 0  -0.24 0.128 0  -0.2 0.128 0  -0.16 0.128 0  -0.12 0.128 0  -0.07999999999999996 0.128 0  -0.04000000000000004 0.128 0  0 0.128 0  0.04000000000000004 0.128 0  0.08000000000000007 0.128 0  0.1200000000000001 0.128 0  0.1599
[...]
<PointData  Scalars="f_100"> 
<DataArray  type="Float64"  Name="f_100"  format="ascii">6.0000000000000002e-05  5.2738591108777752e-05  4.8918377990342404e-05  4.5019481588189178e-05  4.0891773723987134e-05  3.6923606712354143e-05  3.3523528142003341e-05  3.0907181512024060e-05  2.9077585772848141e-05  2.7901564508627082e-05  2.7199705543765940e-05  2.6807220823657035e-05  2.6599194085124309e-05  2.6490796482405497e-05  2.6424098079826077e-05  2.6346840010105892e-05  2.6181969330400566e-05  2.5778624665008409e-05  2.4801107253235958e-05  1.9655163891048177e-05  1.3301663042138179e-05  9.6440775585226276e-06  6.7479356449691212e-06  4.4682867572778846e-06  2.7820880130100539e-06  1.6275405290561088e-06  8.9657158859885217e-07  4.6680912992797944e-07  2.3074991116775778e-07  1.0903137144115875e-07  5.1079461408019260e-08  3.5045672119494501e-08  3.2933020322323381e-08  1.8968619027916171e-08  9.1014853604559533e-09  3.9717387714250848e-09  1.6375961939111889e-09  6.4916627424843527e-10  2.4961294925821001e-10  9.3565821691626316e-11  3.4299159076362761e-11  1.2323384959313004e-11  4.3470229123332858e-12  1.5075329656880137e-12  5.1459157572224705e-13  1.7307091258273115e-13  5.7404563571771337e-14  1.8791346699553279e-14  6.0651858705056419e-15  1.8516484075261116e-15  0.0000000000000000e+00  6.0000000000000002e-05  5.3015182014990556e-05  4.9180889275637022e-05  4.5265238598896935e-05  4.1117453655805222e-05  3.7127417348067677e-05  3.3706612734579891e-05  3.1072998986784337e-05  2.9230540975588198e-05  2.8045819865476182e-05  2.7338548223601852e-05  2.6942932960513509e-05  2.6733209263351222e-05  2.6623946786372968e-05  2.6556839240148467e-05  2.6479407981986938e-05  2.6314442555483290e-05  2.5910958337700918e-05  2.4920329808480692e-05  2.0185795370023381e-05  1.4020158002483152e-05  1.0195360616912610e-05  7.1508624134994508e-06  4.7473876203405920e-06  2.9635317840670670e-06  1.7379549575974703e-06  9.5956488257619456e-07  5.0062843089885201e-07  2.4791443593773418e-07  1.1730038090152919e-07  5.4839292224116176e-08  3.5730231675045370e-08  3.3191792173644180e-08  1.9137952119787327e-08  9.1840447873109327e-09  4.0081067252473459e-09  1.6527215875476991e-09  6.5521179822983681e-10  2.5195552127934682e-10  9.4450196124429811e-11  3.4625476724616718e-11  1.2441330952398848e-11  4.3888557923761792e-12  1.5221131230917010e-12  5.1959128185115911e-13  1.7475951663698313e-13  5.7966809182071777e-14  1.8976069866537217e-14  6.1251475896495905e-15  1.8711610921754528e-15  0.0000000000000000e+00  6.0000000000000002e-05  5.3287606236076211e-05  4.9442495144123035e-05  4.5511551267822425e-05  4.1344109295184573e-05  3.7332278853869907e-05  3.3890704632681585e-05  3.1239743782279470e-05  2.9384342199998781e-05  2.8190853882858182e-05  2.7478120515583299e-05  2.7079342395655644e-05  2.6867902186388441e-05  2.6757763933067085e-05  2.6690241850338845e-05  2.6612636294432798e-05  2.6447587535048075e-05  2.6044076352660255e-05  2.5043580801638158e-05  2.0669754062996406e-05  1.4731336910888517e-05  1.0743733732372847e-05  7.5559275034724287e-06  5.0302306238672300e-06  3.1486884767633573e-06  1.8513600878549734e-06  1.0246677029992948e-06  5.3579154478811519e-07  2.6586577721932454e-07  1.2599759517519386e-07  5.8809016507243668e-08  3.6677963410078379e-08  3.3521808227761209e-08  1.9327084985113547e-08  9.2717887619901930e-09  4.0459236652470256e-09  1.6682961976936696e-09  6.6140988925853889e-10  2.5435296103659018e-10  9.5354806253678543e-11  3.4959287144941854e-11  1.2562030181266356e-11  4.4316870841914411e-12  1.5370497860137500e-12  5.2471626271222794e-13  1.7649145176572987e-13  5.8543816264595386e-14  1.9165749715956921e-14  6.1867508088138376e-15  1.8911678095776391e-15  0.0000000000000000e+00  6.0000000000000002e-05  5.3555061631452544e-05  4.9703163787807313e-05  4.5758421730496436e-05  4.1571748328689446e-05  3.7538196432024691e-05  3.4075805201899997e-05  3.1407414772913788e-05  2.9538987659444424e-05  2.8336665386572434e-05  2.7618422379141414e-05  2.7216450209612346e-05  2.7003274797382669e-05  2.6892250421567932e-05  2.6824308704113849e-05  2.6746527852356538e-05  2.6581407049255761e-05  2.6177973193419952e-05  2.5170600436108393e-05  2.1113379870595841e-05  1.5416763607550976e-05  1.1285927863684926e-05  7.9616838967110829e-06  5.3159866454462713e-06  3.3370421467365961e-06  1.9674255251371411e-06  1.0916709713178956e-06  5.7217122494783285e-07  2.8453053291813558e-07  1.3508343508618707e-07  6.2973745234530063e-08  3.7853604129900313e-08  3.3924304148479487e-08  1.9536296819854008e-08  9.3647336541664824e-09  4.0851642952834990e-09  1.6843017826568065e-09  6.6775131535024281e-10  2.5680116036934088e-10  9.6277944113241289e-11  3.5299910961823363e-11  1.2685221180757854e-11  4.4754188320029980e-12  1.5523070978423842e-12  5.2995366168231023e-13  1.7826219400308343e-13  5.9134020224339576e-14  1.9359853641225057e-14  6.2498161615011851e-15  1.9116044203776566e-15  0.0000000000000000e+00  6.0000000000000002e-05  5.3816986605295997e-05  4.9962878315191763e-05  4.6005854778460636e-05  4.1800378836684705e-05  3.7745175649714187e-05  3.4261916637407487e-05  3.1576011976122524e-05  2.9694476735714674e-05  2.8483254192062948e-05  2.7759454509636646e-05  2.7354257982658954e-05  2.7139329361502592e-05  2.7027408958965407e-05  2.6959042741103273e-05  2.6881085675148995e-05  2.6715903956442029e-05  2.6312645810214471e-05  2.5301126684270889e-05  2.1522282457241209e-05  1.6067525329348036e-05  1.1819552565284632e-05  8.3668573488728100e-06  5.6039294213929552e-06  3.5281705212229074e-06  2.0859071846391825e-06  1.1604370744676716e-06  6.0969277867978144e-07  3.0387000111586684e-07  1.4453904643664771e-07  6.7328207816789532e-08  3.9231663863268907e-08  3.4400399759592348e-08  1.9765809082154760e-08  9.4628872667034464e-09  4.1258070446088542e-09  1.7007234854302994e-09  6.7422864839395878e-10  2.5929682949964420e-10  9.7218245001410604e-11  3.5646805977915653e-11  1.2810695429323998e-11  4.5199729536677720e-12  1.5678564877515269e-12  5.3529323787844794e-13  1.8006814087247674e-13  5.9736175502137640e-14  1.9557957749725976e-14  6.3142009386734686e-15  1.9324206964102859e-15  0.0000000000000000e+00  6.0000000000000002e-05  5.4073016299532493e-05  5.0221634891434679e-05  4.6253857911411155e-05  4.2030009404297256e-05  3.7953222446300719e-05  3.4449041852090541e-05  3.1745536369763398e-05  2.9850809784269100e-05  2.8630620937510958e-05  2.7901218214945523e-05  2.7492767713133683e-05  2.7276068416198489e-05  2.7163242431381042e-05  2.7094447029281154e-05  2.7016312884130514e-05  2.6851081176108371e-05  2.6448092897187062e-05  2.5434902500820439e-05  2.1901360045392090e-05  1.6680253144740897e-05  1.2342664250219465e-05  8.7702969570165303e-06  5.8934032343312270e-06  3.7217095497720736e-06  2.2066116814074297e-06  1.2308690959646055e-06  6.4831087026274416e-07  3.2386460668939357e-07  1.5435687895798335e-07  7.1872071955465502e-08  4.0793674551932521e-08  3.4951069698012024e-08  2.0015785082128394e-08  9.5662475897288228e-09  4.1678327610953500e-09  1.7175490683669111e-09  6.8083589618618756e-10  2.6183733596659101e-10  9.8174620830965390e-11  3.5999540662484078e-11  1.2938287125470508e-11  4.5652873997634695e-12  1.5836752603844101e-12  5.4072685888766638e-13  1.8190643233802477e-13  6.0349293466932207e-14  1.9759725660552542e-14  6.3797919309252596e-15  1.9535775866322527e-15  0.0000000000000000e+00  6.0000000000000002e-05  5.4322946239424658e-05  5.0479441464252330e-05  4.6502441382643769e-05  4.2260649211409775e-05  3.8162343137655454e-05  3.4637184383062882e-05  3.1915989741036776e-05  3.0007987973807504e-05  2.8778766946739011e-05  2.8043715314307115e-05  2.7631981750591792e-05  2.7413494730531908e-05  2.7299753880263629e-05  2.7230524750553440e-05  2.7152212692237216e-05  2.6986941676413288e-05  2.6584314315157101e-05  2.5571680872490150e-05  2.2254854594768633e-05  1.7254736195885644e-05  1.2853648280279102e-05  9.1709643297803626e-06  6.1838098602294339e-06  3.9173361516106219e-06  2.3293780571511132e-06  1.3028948009617268e-06  6.8799743486365367e-07  3.4450582027397935e-07  1.6453582918369596e-07  7.6607646349059743e-08  4.2526331235297682e-08  3.5577134407721994e-08  2.0286329374832967e-08  9.6748017595082834e-09  4.2112236421029569e-09  1.7347682908604467e-09  6.8756820405136973e-10  2.6442057423292102e-10  9.9146206233324343e-11  3.6357772732403057e-11  1.3067864934328858e-11  4.6113130549272833e-12  1.5997454587740491e-12  5.4624809200606702e-13  1.8377480660157890e-13  6.0972592419604031e-14  1.9964891444660013e-14  6.4464996713941265e-15  1.9750450135460774e-15  0.0000000000000000e+00  6.0000000000000002e-05  5.4566702214426959e-05  5.0736316898191733e-05  4.6751618234018761e-05  4.2492308104548336e-05  3.8372544417997206e-05  3.4826348313416272e-05  3.2087374561427006e-05  3.0166013154070195e-05  2.8927694116561601e-05  2.8186948055375071e-05  2.7771902741062789e-05  2.7551611271882010e-05  2.7436946482959190e-05  2.7367279188895944e-05  2.7288788395511632e-05  2.7123488465003696e-05  2.6721310636893762e-05  2.5711228174248167e-05  2.2586422225582504e-05  1.7792497916795321e-05  1.3351211047741125e-05  9.5679367835164322e-06  6.4746056384887610e-06  4.1147610837214658e-06  2.4540691363217732e-06  1.3764587244280435e-06  7.2873561881209838e-07  3.6579209270052188e-07  1.7507880230255718e-07  8.1538806085884228e-08  4.4420215144825570e-08  3.6279262695319454e-08  2.0577486962382829e-08  9.7885251984976184e-09  4.2559623632424905e-09  1.7523724041045837e-09  6.9442161305325000e-10  2.6704486015575674e-10  1.0013231498264643e-10  3.6721231848735799e-11  1.3199325324930967e-11  4.6580112380469822e-12  1.6160529475693341e-12  5.5185187485771705e-13  1.8567148396380645e-13  6.1605457346378227e-14  2.0173245898051113e-14  6.5142538052145589e-15  1.9968000979749893e-15  0.0000000000000000e+00  6.0000000000000002e-05  5.4804315374154254e-05  5.0992290384610186e-05  4.7001404318234369e-05  4.2724996653065341e-05  3.8583833359583164e-05  3.5016538206588025e-05  3.2259693883109835e-05  3.0324887746848017e-05  2.9077404824176781e-05  2.8330919046153862e-05  2.7912533582175185e-05  2.7690421178646390e-05  2.7574823536740430e-05  2.7504713720548573e-05  2.7426043366047215e-05  2.7260724582315341e-05  2.6859082794599601e-05  2.5853326219472538e-05  2.2899207008348762e-05  1.8295952685613737e-05  1.3834394938666662e-05  9.9604151492983709e-06  6.7653038743306924e-06  4.3137274518602056e-06  2.5805682517348977e-06  1.4515187272269841e-06  7.7051700025139717e-07  3.8772694857805614e-07  1.8599156014671308e-07  8.6670542001919326e-08  4.6468905779956571e-08  3.7057980127597474e-08  2.0889242335080676e-08  9.9073809169255427e-09  4.3020313722886036e-09  1.7703537417772357e-09  7.0139286424359197e-10  2.6970884561567148e-10  1.0113240477055698e-10  3.7089705639309273e-11  1.3332587191799498e-11  4.7053516855904492e-12  1.6325866738815396e-12  5.5753424997572699e-13  1.8759507328645362e-13  6.2247407520108484e-14  2.0384625496633944e-14  6.5829993649600040e-15  2.0188257296946987e-15  0.0000000000000000e+00  6.0000000000000002e-05  5.5035901684655683e-05  5.1247401029325700e-05  4.7251818307247266e-05  4.2958726191633300e-05  3.8796217410514755e-05  3.5207759051159380e-05  3.2432951253058789e-05  3.0484614656067795e-05  2.9227901850980800e-05  2.8475631199098584e-05  2.8053877386321156e-05  2.7829927737808736e-05  2.7713388445631977e-05  2.7642831805862966e-05  2.7563981046101337e-05  2.7398653096693606e-05  2.6997631811915814e-05  2.5997773318048830e-05  2.3195911786084688e-05  1.8767912373571572e-05  1.4302584531496588e-05  1.0347732504257912e-05  7.0554799610496430e-06  4.5140123671924433e-06  2.7087789835871453e-06  1.5280450343787049e-06  8.1334060889703800e-07  4.1031824932451128e-07  1.9728225787535830e-07  9.2008827074192894e-08  4.8668358993158715e-08  3.7913679541308725e-08  2.1221518391847578e-08  1.0031318959579606e-08  4.3494123212589931e-09  1.7887053893953790e-09  7.0847924037735581e-10  2.7241144949125750e-10  1.0214604873819143e-10  3.7463028409130325e-11  1.3467587513433805e-11  4.7533109246971022e-12  1.6493380713279122e-12  5.6329215091921308e-13  1.8954449665520183e-13  6.2898070418287521e-14  2.0598903508555560e-14  6.6526937746577619e-15  2.0411094172899917e-15  0.0000000000000000e+00  6.0000000000000002e-05  5.5261645028837023e-05  5.1501697546557388e-05  4.7502881686364916e-05  4.3193508850743102e-05  3.9009704390860946e-05  3.5400016214262524e-05  3.2607150641735266e-05  3.0645197193547755e-05  2.9379188319835164e-05  2.8621087685149515e-05  2.8195937450367340e-05  2.7970134366453261e-05  2.7852644709490503e-05  2.7781636982475769e-05  2.7702604943143793e-05  2.7537277100856669e-05  2.7136958605181442e-05  2.6144384593122092e-05  2.3478862964252362e-05  1.9211303431672115e-05  1.4755496932000120e-05  1.0729362232455777e-05  7.3447777575911071e-06  4.7154303475901065e-06  2.8386266068199884e-06  1.6060206712716586e-06  8.5721294684695997e-07  4.3357809885845606e-07  2.0896135483250962e-07  9.7560643964095082e-08  5.1016470750586099e-08  3.8846631241474411e-08  2.1574175283287222e-08  1.0160275984253310e-08  4.3980856144169639e-09  1.8074209182621001e-09  7.1567843813299425e-10  2.7515180188967041e-10  1.0317291247639828e-10  3.7841072022849682e-11  1.3604277847880669e-11  4.8018709606764547e-12  1.6663005795103944e-12  5.6912322991030825e-13  1.9151892869804826e-13  6.3557160724917395e-14  2.0815982842129199e-14  6.7233044396568891e-15  2.0636423634114599e-15  0.0000000000000000e+00  6.0000000000000002e-05  5.5481783351135287e-05  5.1755238008142595e-05  4.7754618733972461e-05  4.3429357576632495e-05  3.9224302487256078e-05  3.5593315402077783e-05  3.2782296383786050e-05  3.0806639017618472e-05  2.9531267643346500e-05  2.8767291895875795e-05  2.8338717230690640e-05  2.8111044596475448e-05  2.7992595914899416e-05  2.7921132859540233e-05  2.7841918625651333e-05  2.7676599709352003e-05  2.7277063840891168e-05  2.6292991754225634e-05  2.3750068090098211e-05  1.9629010256115477e-05  1.5193158673801264e-05  1.1104924632714435e-05  7.6329163899164179e-06  4.9178376725220332e-06  2.9700605223045320e-06  1.6854427058614797e-06  9.0214858105992372e-07  4.5752311213876697e-07  2.2104173439790468e-07  1.0333409561239613e-07  5.3512772894429057e-08  3.9856991326147970e-08  2.1947009220235539e-08  1.0294174960648254e-08  4.4480300538514960e-09  1.8264941725163518e-09  7.2298846518284092e-10  2.7792919912940326e-10  1.0421273545092436e-10  3.8223738542342685e-11  1.3742621504013114e-11  4.8510182180974802e-12  1.6834692565380261e-12  5.7502571891761189e-13  1.9351774770311460e-13  6.4224463423470645e-14  2.1035790289791829e-14  6.7948068075302566e-15  2.0864187219484343e-15  0.0000000000000000e+00  6.0000000000000002e-05  5.5696597344024657e-05  5.2008089612447353e-05  4.8007056487127424e-05  4.3666286141850013e-05  3.9440020246094198e-05  3.5787662626156013e-05  3.2958393128618057e-05  3.0968944082299322e-05  2.9684143481155955e-05  2.8914247412232769e-05  2.8482220322541176e-05  2.8252662061876991e-05  2.8133245727519614e-05  2.8061323112799291e-05  2.7981925719493647e-05  2.7816624056754348e-05  2.7417947838289926e-05  2.6443442480840821e-05  2.4011266093754301e-05  2.0023793897981861e-05  1.5615874260907100e-05  1.1474191697430330e-05  7.9196970070368379e-06  5.1211372417819603e-06  3.1030572682115545e-06  1.7663239735466176e-06  9.4817107685604685e-07  4.8217489836053387e-07  2.3353894640586756e-07  1.0933856057962906e-07  5.6158224322195608e-08  4.0944807143496409e-08  2.2339751288862458e-08  1.0432924980471984e-08  4.4992225674888796e-09  1.8459190999043154e-09  7.3040755751844395e-10  2.8074306744584678e-10  1.0526531600830624e-10  3.8610954282337259e-11  1.3882591258163082e-11  4.9007426863791266e-12  1.7008404665307081e-12  5.8099831767719268e-13  1.9554049623455481e-13  6.4899820181406871e-14  2.1258271894748412e-14  6.8671828076259886e-15  2.1094350019829146e-15  0.0000000000000000e+00  6.0000000000000002e-05  5.5906401255645142e-05  5.2260328448955463e-05  4.8260224693417073e-05  4.3904309147477405e-05  3.9656866565417203e-05  3.5983064174513154e-05  3.3135445799088285e-05  3.1132116595127541e-05  2.9837819704592661e-05  2.9061957978707681e-05  2.8626450442916673e-05  2.8394990488145922e-05  2.8274597885604748e-05  2.8202211480323381e-05  2.8122629904785033e-05  2.7957353296424963e-05  2.7559610507818973e-05  2.6595599534957943e-05  2.4263970614847621e-05  2.0398255353299829e-05  1.6024191228898630e-05  1.1837089965800187e-05  8.2050092370079076e-06  5.3252836811225657e-06  3.2376238856872235e-06  1.8486951080067860e-06  9.9531414884196462e-07  5.0756068069497286e-07  2.4647152720918076e-07  1.1558487499837267e-07  5.8955072209907785e-08  4.2110019259165944e-08  2.2752066311577813e-08  1.0576421171077799e-08  4.5516380070141578e-09  1.8656896186073268e-09  7.3793411329527400e-10  2.8359293377410225e-10  1.0633049927898772e-10  3.9002665011517218e-11  1.4024167510788635e-11  4.9510372302491338e-12  1.7184116275309714e-12  5.8704010340260013e-13  1.9758684939184276e-13  6.5583118382195791e-14  2.1483389220219710e-14  6.9404195949186520e-15  2.1326895901289468e-15  0.0000000000000000e+00  6.0000000000000002e-05  5.6111535466326341e-05  5.2512039243087412e-05  4.8514155749567198e-05  4.4143442017885605e-05  3.9874850685575183e-05  3.6179526586620432e-05  3.3313459556851799e-05  3.1296160982071830e-05  2.9992300367339630e-05  2.9210427481850018e-05  2.8771411416281732e-05  2.8538033683315045e-05  2.8416656194443743e-05  2.8343801758769868e-05  2.8264034913099551e-05  2.8098790599704760e-05  2.7702051317693706e-05  2.6749339692693019e-05  2.4509507096204259e-05  2.0754824887453399e-05  1.6418865460840117e-05  1.2193701572831941e-05  8.4888372194604890e-06  5.5302885485750005e-06  3.3738015118914110e-06  1.9326067813619773e-06  1.0436229633098754e-06  5.3371401175251442e-07  2.5986137432936437e-07  1.2208553310604365e-07  6.1906765415597927e-08  4.3352459552680039e-08  2.3183551791808216e-08  1.0724544706293937e-08  4.6052490053286509e-09  1.8857995138568768e-09  7.4556664015800687e-10  2.8647840227414190e-10  1.0740816742411926e-10  3.9398832078601634e-11  1.4167336798052211e-11  5.0018970330620199e-12  1.7361810080614041e-12  5.9315045795020857e-13  1.9965658921716574e-13  6.6274282285874045e-14  2.1711116344034469e-14  7.0145085383046219e-15  2.1561823683009512e-15  0.0000000000000000e+00  6.0000000000000002e-05  5.6312360539149715e-05  5.2763315072044236e-05  4.8768884627343571e-05  4.4383700988778185e-05  4.0093982178725466e-05  3.6377056631561414e-05  3.3492439773162125e-05  3.1461081858238242e-05  3.0147589681001160e-05  2.9359659932363576e-05  2.8917107162586955e-05  2.8681795530367115e-05  2.8559424521538191e-05  2.8486097800047969e-05  2.8406144524966602e-05  2.8240939155451738e-05  2.7845269282260676e-05  2.6904552562317295e-05  2.4749044415837798e-05  2.1095766253307760e-05  1.6800829245044849e-05  1.2544263777304509e-05  8.7712651749712650e-06  5.7362255604738690e-06  3.5116691290429301e-06  2.0181321008826831e-06  1.0931555572322484e-06  5.6067556379751261e-07  2.7373416416086232e-07  1.2885490330102324e-07  6.5017907318352979e-08  4.4671845214456366e-08  2.3633736980428626e-08  1.0877162909118147e-08  4.6600258849243505e-09  1.9062423592007715e-09  7.5330371357192911e-10  2.8939913551458387e-10  1.0849823177744548e-10  3.9799429284921167e-11  1.4312090589471451e-11  5.0533191471104534e-12  1.7541475628291363e-12  5.9932900902305259e-13  2.0174958404480235e-13  6.6973265899733226e-14  2.1941437435724594e-14  7.0894444051294934e-15  2.1799144083422364e-15  0.0000000000000000e+00  6.0000000000000002e-05  5.6509252497730729e-05  5.3014257046934029e-05  4.9024448787318245e-05  4.4625103089179121e-05  4.0314270937228105e-05  3.6575661288749774e-05  3.3672392004125699e-05  3.1626884003301914e-05  3.0303691994658150e-05  2.9509659450085554e-05  2.9063541687142389e-05  2.8826279980716442e-05  2.870290679235804