<?xml version="1.0"?>
<VTKFile type="UnstructuredGrid"  version="0.1"  >
<UnstructuredGrid>
<Piece  NumberOfPoints="2601" NumberOfCells="5000">
<Points>
<DataArray  type="Float64"  NumberOfComponents="3"  format="ascii">-1 0 0  -0.96 0 0  -0.92 0 0  -0.88 0 0  -0.84 0 0  -0.8 0 0  -0.76 0 0  -0.72 0 0  -0.6799999999999999 0 0  -0.64 0 0  -0.6 0 0  -0.5600000000000001 0 0  -0.52 0 0  -0.48 0 0  -0.4399999999999999 0 0  -0.4 0 0  -0.36 0 0  -0.32 0 0  -0.28 0 0  -0.24 0 0  -0.2 0 0  -0.16 0 0  -0.12 0 0  -0.07999999999999996 0 0  -0.04000000000000004 0 0  0 0 0  0.04000000000000004 0 0  0.08000000000000007 0 0  0.1200000000000001 0 0  0.1599999999999999 0 0  0.2 0 0  0.24 0 0  0.28 0 0  0.3200000000000001 0 0  0.3600000000000001 0 0  0.3999999999999999 0 0  0.4399999999999999 0 0  0.48 0 0  0.52 0 0  0.5600000000000001 0 0  0.6000000000000001 0 0  0.6399999999999999 0 0  0.6799999999999999 0 0  0.72 0 0  0.76 0 0  0.8 0 0  0.8400000000000001 0 0  0.8799999999999999 0 0  0.9199999999999999 0 0  0.96 0 0  1 0 0  -1 0.016 0  -0.96 0.016 0  -0.92 0.016 0  -0.88 0.016 0  -0.84 0.016 0  -0.8 0.016 0  -0.76 0.016 0  -0.72 0.016 0  -0.6799999999999999 0.016 0  -0.64 0.016 0  -0.6 0.016 0  -0.5600000000000001 0.016 0  -0.52 0.016 0  -0.48 0.016 0  -0.4399999999999999 0.016 0  -0.4 0.016 0  -0.36 0.016 0  -0.32 0.016 0  -0.28 0.016 0  -0.24 0.016 0  -0.2 0.016 0  -0.16 0.016 0  -0.12 0.016 0  -0.07999999999999996 0.016 0  -0.04000000000000004 0.016 0  0 0.016 0  0.04000000000000004 0.016 0  0.08000000000000007 0.016 0  0.1200000000000001 0.016 0  0.1599999999999999 0.016 0  0.2 0.016 0  0.24 0.016 0  0.28 0.016 0  0.3200000000000001 0.016 0  0.3600000000000001 0.016 0  0.3999999999999999 0.016 0  0.4399999999999999 0.016 0  0.48 0.016 0  0.52 0.016 0  0.5600000000000001 0.016 0  0.6000000000000001 0.016 0  0.6399999999999999 0.016 0  0.6799999999999999 0.016 0  0.72 0.016 0  0.76 0.016 0  0.8 0.016 0  0.8400000000000001 0.016 0  0.8799999999999999 0.016 0  0.9199999999999999 0.016 0  0.96 0.016 0  1 0.016 0  -1 0.032 0  -0.96 0.032 0  -0.92 0.032 0  -0.88 0.032 0  -0.84 0.032 0  -0.8 0.032 0  -0.76 0.032 0  -0.72 0.032 0  -0.6799999999999999 0.032 0  -0.64 0.032 0  -0.6 0.032 0  -0.5600000000000001 0.032 0  -0.52 0.032 0  -0.48 0.032 0  -0.4399999999999999 0.032 0  -0.4 0.032 0  -0.36 0.032 0  -0.32 0.032 0  -0.28 0.032 0  -0.24 0.032 0  -0.2 0.032 0  -0.16 0.032 0  -0.12 0.032 0  -0.07999999999999996 0.032 0  -0.04000000000000004 0.032 0  0 0.032 0  0.04000000000000004 0.032 0  0.08000000000000007 0.032 0  0.1200000000000001 0.032 0  0.1599999999999999 0.032 0  0.2 0.032 0  0.24 0.032 0  0.28 0.032 0  0.3200000000000001 0.032 0  0.3600000000000001 0.032 0  0.3999999999999999 0.032 0  0.4399999999999999 0.032 0  0.48 0.032 0  0.52 0.032 0  0.5600000000000001 0.032 0  0.6000000000000001 0.032 0  0.6399999999999999 0.032 0  0.6799999999999999 0.032 0  0.72 0.032 0  0.76 0.032 0  0.8 0.032 0  0.8400000000000001 0.032 0  0.8799999999999999 0.032 0  0.9199999999999999 0.032 0  0.96 0.032 0  1 0.032 0  -1 0.04800000000000001 0  -0.96 0.04800000000000001 0  -0.92 0.04800000000000001 0  -0.88 0.04800000000000001 0  -0.84 0.04800000000000001 0  -0.8 0.04800000000000001 0  -0.76 0.04800000000000001 0  -0.72 0.04800000000000001 0  -0.6799999999999999 0.04800000000000001 0  -0.64 0.04800000000000001 0  -0.6 0.04800000000000001 0  -0.5600000000000001 0.04800000000000001 0  -0.52 0.04800000000000001 0  -0.48 0.04800000000000001 0  -0.4399999999999999 0.04800000000000001 0  -0.4 0.04800000000000001 0  -0.36 0.04800000000000001 0  -0.32 0.04800000000000001 0  -0.28 0.04800000000000001 0  -0.24 0.04800000000000001 0  -0.2 0.04800000000000001 0  -0.16 0.04800000000000001 0  -0.12 0.04800000000000001 0  -0.07999999999999996 0.04800000000000001 0  -0.04000000000000004 0.04800000000000001 0  0 0.04800000000000001 0  0.04000000000000004 0.04800000000000001 0  0.08000000000000007 0.04800000000000001 0  0.1200000000000001 0.04800000000000001 0  0.1599999999999999 0.04800000000000001 0  0.2 0.04800000000000001 0  0.24 0.04800000000000001 0  0.28 0.04800000000000001 0  0.3200000000000001 0.04800000000000001 0  0.3600000000000001 0.04800000000000001 0  0.3999999999999999 0.04800000000000001 0  0.4399999999999999 0.04800000000000001 0  0.48 0.04800000000000001 0  0.52 0.04800000000000001 0  0.5600000000000001 0.04800000000000001 0  0.6000000000000001 0.04800000000000001 0  0.6399999999999999 0.04800000000000001 0  0.6799999999999999 0.04800000000000001 0  0.72 0.04800000000000001 0  0.76 0.04800000000000001 0  0.8 0.04800000000000001 0  0.8400000000000001 0.04800000000000001 0  0.8799999999999999 0.04800000000000001 0  0.9199999999999999 0.04800000000000001 0  0.96 0.04800000000000001 0  1 0.04800000000000001 0  -1 0.064 0  -0.96 0.064 0  -0.92 0.064 0  -0.88 0.064 0  -0.84 0.064 0  -0.8 0.064 0  -0.76 0.064 0  -0.72 0.064 0  -0.6799999999999999 0.064 0  -0.64 0.064 0  -0.6 0.064 0  -0.5600000000000001 0.064 0  -0.52 0.064 0  -0.48 0.064 0  -0.4399999999999999 0.064 0  -0.4 0.064 0  -0.36 0.064 0  -0.32 0.064 0  -0.28 0.064 0  -0.24 0.064 0  -0.2 0.064 0  -0.16 0.064 0  -0.12 0.064 0  -0.07999999999999996 0.064 0  -0.04000000000000004 0.064 0  0 0.064 0  0.04000000000000004 0.064 0  0.08000000000000007 0.064 0  0.1200000000000001 0.064 0  0.1599999999999999 0.064 0  0.2 0.064 0  0.24 0.064 0  0.28 0.064 0  0.3200000000000001 0.064 0  0.3600000000000001 0.064 0  0.3999999999999999 0.064 0  0.4399999999999999 0.064 0  0.48 0.064 0  0.52 0.064 0  0.5600000000000001 0.064 0  0.6000000000000001 0.064 0  0.6399999999999999 0.064 0  0.6799999999999999 0.064 0  0.72 0.064 0  0.76 0.064 0  0.8 0.064 0  0.8400000000000001 0.064 0  0.8799999999999999 0.064 0  0.9199999999999999 0.064 0  0.96 0.064 0  1 0.064 0  -1 0.08 0  -0.96 0.08 0  -0.92 0.08 0  -0.88 0.08 0  -0.84 0.08 0  -0.8 0.08 0  -0.76 0.08 0  -0.72 0.08 0  -0.6799999999999999 0.08 0  -0.64 0.08 0  -0.6 0.08 0  -0.5600000000000001 0.08 0  -0.52 0.08 0  -0.48 0.08 0  -0.4399999999999999 0.08 0  -0.4 0.08 0  -0.36 0.08 0  -0.32 0.08 0  -0.28 0.08 0  -0.24 0.08 0  -0.2 0.08 0  -0.16 0.08 0  -0.12 0.08 0  -0.07999999999999996 0.08 0  -0.04000000000000004 0.08 0  0 0.08 0  0.04000000000000004 0.08 0  0.08000000000000007 0.08 0  0.1200000000000001 0.08 0  0.1599999999999999 0.08 0  0.2 0.08 0  0.24 0.08 0  0.28 0.08 0  0.3200000000000001 0.08 0  0.3600000000000001 0.08 0  0.3999999999999999 0.08 0  0.4399999999999999 0.08 0  0.48 0.08 0  0.52 0.08 0  0.5600000000000001 0.08 0  0.6000000000000001 0.08 0  0.6399999999999999 0.08 0  0.6799999999999999 0.08 0  0.72 0.08 0  0.76 0.08 0  0.8 0.08 0  0.8400000000000001 0.08 0  0.8799999999999999 0.08 0  0.9199999999999999 0.08 0  0.96 0.08 0  1 0.08 0  -1 0.09600000000000002 0  -0.96 0.09600000000000002 0  -0.92 0.09600000000000002 0  -0.88 0.09600000000000002 0  -0.84 0.09600000000000002 0  -0.8 0.09600000000000002 0  -0.76 0.09600000000000002 0  -0.72 0.09600000000000002 0  -0.6799999999999999 0.09600000000000002 0  -0.64 0.09600000000000002 0  -0.6 0.09600000000000002 0  -0.5600000000000001 0.09600000000000002 0  -0.52 0.09600000000000002 0  -0.48 0.09600000000000002 0  -0.4399999999999999 0.09600000000000002 0  -0.4 0.09600000000000002 0  -0.36 0.09600000000000002 0  -0.32 0.09600000000000002 0  -0.28 0.09600000000000002 0  -0.24 0.09600000000000002 0  -0.2 0.09600000000000002 0  -0.16 0.09600000000000002 0  -0.12 0.09600000000000002 0  -0.07999999999999996 0.09600000000000002 0  -0.04000000000000004 0.09600000000000002 0  0 0.09600000000000002 0  0.04000000000000004 0.09600000000000002 0  0.08000000000000007 0.09600000000000002 0  0.1200000000000001 0.09600000000000002 0  0.1599999999999999 0.09600000000000002 0  0.2 0.09600000000000002 0  0.24 0.09600000000000002 0  0.28 0.09600000000000002 0  0.3200000000000001 0.09600000000000002 0  0.3600000000000001 0.09600000000000002 0  0.3999999999999999 0.09600000000000002 0  0.4399999999999999 0.09600000000000002 0  0.48 0.09600000000000002 0  0.52 0.09600000000000002 0  0.5600000000000001 0.09600000000000002 0  0.6000000000000001 0.09600000000000002 0  0.6399999999999999 0.09600000000000002 0  0.6799999999999999 0.09600000000000002 0  0.72 0.09600000000000002 0  0.76 0.09600000000000002 0  0.8 0.09600000000000002 0  0.8400000000000001 0.09600000000000002 0  0.8799999999999999 0.09600000000000002 0  0.9199999999999999 0.09600000000000002 0  0.96 0.09600000000000002 0  1 0.09600000000000002 0  -1 0.112 0  -0.96 0.112 0  -0.92 0.112 0  -0.88 0.112 0  -0.84 0.112 0  -0.8 0.112 0  -0.76 0.112 0  -0.72 0.112 0  -0.6799999999999999 0.112 0  -0.64 0.112 0  -0.6 0.112 0  -0.5600000000000001 0.112 0  -0.52 0.112 0  -0.48 0.112 0  -0.4399999999999999 0.112 0  -0.4 0.112 0  -0.36 0.112 0  -0.32 0.112 0  -0.28 0.112 0  -0.24 0.112 0  -0.2 0.112 0  -0.16 0.112 0  -0.12 0.112 0  -0.07999999999999996 0.112 0  -0.04000000000000004 0.112 0  0 0.112 0  0.04000000000000004 0.112 0  0.08000000000000007 0.112 0  0.1200000000000001 0.112 0  0.1599999999999999 0.112 0  0.2 0.112 0  0.24 0.112 0  0.28 0.112 0  0.3200000000000001 0.112 0  0.3600000000000001 0.112 0  0.3999999999999999 0.112 0  0.4399999999999999 0.112 0  0.48 0.112 0  0.52 0.112 0  0.5600000000000001 0.112 0  0.6000000000000001 0.112 0  0.6399999999999999 0.112 0  0.6799999999999999 0.112 0  0.72 0.112 0  0.76 0.112 0  0.8 0.112 0  0.8400000000000001 0.112 0  0.8799999999999999 0.112 0  0.9199999999999999 0.112 0  0.96 0.112 0  1 0.112 0  -1 0.128 0  -0.96 0.128 0  -0.92 0.128 0  -0.88 0.128 0  -0.84 0.128 0  -0.8 0.128 0  -0.76 0.128 0  -0.72 0.128 0  -0.6799999999999999 0.128 0  -0.64 0.128 0  -0.6 0.128 0  -0.5600000000000001 0.128 0  -0.52 0.128 0  -0.48 0.128 0  -0.4399999999999999 0.128 0  -0.4 0.128 0  -0.36 0.128 0  -0.32 0.128 0  -0.28 0.128 0  -0.24 0.128 0  -0.2 0.128 0  -0.16 0.128 0  -0.12 0.128 0  -0.07999999999999996 0.128 0  -0.04000000000000004 0.128 0  0 0.128 0  0.04000000000000004 0.128 0  0.08000000000000007 0.128 0  0.1200000000000001 0.128 0  0.1599
[...]
<PointData  Scalars="f_100"> 
<DataArray  type="Float64"  Name="f_100"  format="ascii">6.0000000000000002e-05  5.4287802249826348e-05  5.3035049333030204e-05  5.2637648746939813e-05  5.2500621561224787e-05  5.2437811641848294e-05  5.2386627254849579e-05  5.2322058358216173e-05  5.2229540241834257e-05  5.2096354859276679e-05  5.1909038039812410e-05  5.1652876355630424e-05  5.1312273450538457e-05  5.0871585211496810e-05  5.0316212633931009e-05  4.9633463556080102e-05  4.8809987804290004e-05  4.7799147646748107e-05  4.6319339612046887e-05  3.7883889093769097e-05  2.7763563709490028e-05  2.3074065411253978e-05  1.9840760494302196e-05  1.7415809952681176e-05  1.5526236081904172e-05  1.4019672332113688e-05  1.2802168102858931e-05  1.1822867679823673e-05  1.1093766463463282e-05  1.0786039565458516e-05  1.1566280858743059e-05  1.6177585156026940e-05  2.2794403034166220e-05  2.4185051025129813e-05  2.3735087318178366e-05  2.2634739511916151e-05  2.1295775638265460e-05  1.9849253205351220e-05  1.8340830843413773e-05  1.6793690690315559e-05  1.5227569911297737e-05  1.3663629739787467e-05  1.2124683255520046e-05  1.0633859545507122e-05  9.2126326611519428e-06  7.8780117086974269e-06  6.6368075061514068e-06  5.4693390586009566e-06  4.2780128335243064e-06  2.7325133027708833e-06  0.0000000000000000e+00  6.0000000000000002e-05  5.4561885572345450e-05  5.3302422130164461e-05  5.2902020865588116e-05  5.2764014607963708e-05  5.2700846313592923e-05  5.2649463753389169e-05  5.2584691915873199e-05  5.2491887960064319e-05  5.2358275649634949e-05  5.2170331144892591e-05  5.1913273646452106e-05  5.1571431334777748e-05  5.1129079163735569e-05  5.0571536633690326e-05  4.9886038051285901e-05  4.9059194567268959e-05  4.8044658706190026e-05  4.6538401381735277e-05  3.8868914647774608e-05  2.9145087611076566e-05  2.4225909951488453e-05  2.0818461043515326e-05  1.8264773350203666e-05  1.6276150263190662e-05  1.4691309538215503e-05  1.3410668451989267e-05  1.2379389694480667e-05  1.1606164677689405e-05  1.1258380130570084e-05  1.1996206091277484e-05  1.6346632976500308e-05  2.2896298943067450e-05  2.4309194878365016e-05  2.3859775399893114e-05  2.2754907150315734e-05  2.1409711280845716e-05  1.9956246137155623e-05  1.8440481782010807e-05  1.6885722069482675e-05  1.5311789452223909e-05  1.3739937759274406e-05  1.2193087885276591e-05  1.0694487774268491e-05  9.2657334963503316e-06  7.9239517276225673e-06  6.6760627981738487e-06  5.5024942708721509e-06  4.3057877603714333e-06  2.7558957951436621e-06  0.0000000000000000e+00  6.0000000000000002e-05  5.4831923610949858e-05  5.3568974308352428e-05  5.3167036472053846e-05  5.3028512460447125e-05  5.2965131336955456e-05  5.2913596284892983e-05  5.2848635396561734e-05  5.2755549115965892e-05  5.2621509654970533e-05  5.2432935436653358e-05  5.2174978700602466e-05  5.1831892067595634e-05  5.1387869311237627e-05  5.0828148396851626e-05  5.0139892391385508e-05  4.9309696117363492e-05  4.8291695181326203e-05  4.6765202373776357e-05  3.9769991787572870e-05  3.0515079267111072e-05  2.5375020983170795e-05  2.1804263028828810e-05  1.9127101459056029e-05  1.7042156816586122e-05  1.5380460539887759e-05  1.4037324710510622e-05  1.2954149689706763e-05  1.2136289133969402e-05  1.1746791643060054e-05  1.2435361948179568e-05  1.6552423609856956e-05  2.3013332067792881e-05  2.4438868194930650e-05  2.3986671081572853e-05  2.2876195461254342e-05  2.1524402808006527e-05  2.0063856811820577e-05  1.8540682393266299e-05  1.6978256165688951e-05  1.5396470697544370e-05  1.3816667888651953e-05  1.2261875332323723e-05  1.0755459844328432e-05  9.3191399336163386e-06  7.9701604506569128e-06  6.7155519409003192e-06  5.5358503348914906e-06  4.3337190893388469e-06  2.7792269583416153e-06  0.0000000000000000e+00  6.0000000000000002e-05  5.5097120508863472e-05  5.3834665184374589e-05  5.3432688722583785e-05  5.3294117509971570e-05  5.3230672022908130e-05  5.3179031106002384e-05  5.3113895387922346e-05  5.3020530443903202e-05  5.2886063708619511e-05  5.2696857842065014e-05  5.2437998544380252e-05  5.2093662779435166e-05  5.1647962885939183e-05  5.1086055235315594e-05  5.0395033857419270e-05  4.9561498976285219e-05  4.8540246191224870e-05  4.6999256199625705e-05  4.0598515923016474e-05  3.1839165988045789e-05  2.6515222802806193e-05  2.2795483176438602e-05  2.0001411289909848e-05  1.7823602303942478e-05  1.6086931402227989e-05  1.4682249338085460e-05  1.3547475803055129e-05  1.2684643350306952e-05  1.2252005760144593e-05  1.2885850162852594e-05  1.6790417482092242e-05  2.3145743223241258e-05  2.4574153744795495e-05  2.4115808720427572e-05  2.2998617854438289e-05  2.1639856862331801e-05  2.0172089650567710e-05  1.8641436264338314e-05  1.7071296125460239e-05  1.5481616440499248e-05  1.3893822567675197e-05  1.2331047665585845e-05  1.0816777441319558e-05  9.3728532704189101e-06  8.0166387758222752e-06  6.7552753669631003e-06  5.5694069764327579e-06  4.3618053979337355e-06  2.8025000445045534e-06  0.0000000000000000e+00  6.0000000000000002e-05  5.5356918109189534e-05  5.4099470300380913e-05  5.3698974905811841e-05  5.3560833464266965e-05  5.3497474114403139e-05  5.3445774621964568e-05  5.3380478530851745e-05  5.3286838693674566e-05  5.3151944637645029e-05  5.2962105263149927e-05  5.2702340159613372e-05  5.2356750535223202e-05  5.1909367032362857e-05  5.1345264352428332e-05  5.0651469605676706e-05  4.9814609542441160e-05  4.8790305340522640e-05  4.7240072126671120e-05  4.1364612903816728e-05  3.3100773724073592e-05  2.7642078751835650e-05  2.3789819528827425e-05  2.0886508588411555e-05  1.8619957906602840e-05  1.6810622799643332e-05  1.5345631432125505e-05  1.4159757476903885e-05  1.3251769595809158e-05  1.2774741320404209e-05  1.3349442760142579e-05  1.7057379581880050e-05  2.3293708485750992e-05  2.4715113056371231e-05  2.4247213649898801e-05  2.3122184788660868e-05  2.1756079121138060e-05  2.0280948730650213e-05  1.8742746835169168e-05  1.7164845018266335e-05  1.5567229433324981e-05  1.3971404224645029e-05  1.2400606972644028e-05  1.0878442300933524e-05  9.4268748865456384e-06  8.0633877185506505e-06  6.7952336757144097e-06  5.6031641919542929e-06  4.3900457994644977e-06  2.8257122804593074e-06  0.0000000000000000e+00  6.0000000000000002e-05  5.5610952658661773e-05  5.4363379310196169e-05  5.3965896215009360e-05  5.3828665279186890e-05  5.3765543766093091e-05  5.3713833382198773e-05  5.3648391521089284e-05  5.3554480635352159e-05  5.3419159270422281e-05  5.3228684587517458e-05  5.2968010497529161e-05  5.2621162351918845e-05  5.2172088828994861e-05  5.1605782867827400e-05  5.0909206693125821e-05  5.0069034092318450e-05  4.9041869362416224e-05  4.7487168188118666e-05  4.2077150513122247e-05  3.4293674159108975e-05  2.8752039647862835e-05  2.4785234799997209e-05  2.1781334929794020e-05  1.9430785795941132e-05  1.7551507005510006e-05  1.6027721017896695e-05  1.4791436392369424e-05  1.3838249545097821e-05  1.3315726879092783e-05  1.3827669813703581e-05  1.7351020681597375e-05  2.3457340776116058e-05  2.4861786754593018e-05  2.4380902633495905e-05  2.3246903940058653e-05  2.1873074358715060e-05  2.0390437814326347e-05  1.8844617416514197e-05  1.7258905849515403e-05  1.5653312396090862e-05  1.4049415280609755e-05  1.2470555358675416e-05  1.0940456202185021e-05  9.4812062314636635e-06  8.1104083926090186e-06  6.8354276052978717e-06  5.6371222035130554e-06  4.4184398631882423e-06  2.8488641004080913e-06  0.0000000000000000e+00  6.0000000000000002e-05  5.5859018878577821e-05  5.4626394491295318e-05  5.4233457563152197e-05  5.4097619102175254e-05  5.4034887527561140e-05  5.3983214076645816e-05  5.3917641110547157e-05  5.3823463063299405e-05  5.3687714442919968e-05  5.3496602697076190e-05  5.3235016490213520e-05  5.2886905213000865e-05  5.2436135305924170e-05  5.1867617837947141e-05  5.1168252098504570e-05  5.0324778784710590e-05  4.9294937035275157e-05  4.7740080376640565e-05  4.2743824097402881e-05  3.5417520829290235e-05  2.9842197089985174e-05  2.5779923437816541e-05  2.2684949131920643e-05  2.0255726815451433e-05  1.8309619482051424e-05  1.6728823589082945e-05  1.5443004043869997e-05  1.4444706870785991e-05  1.3875714470642715e-05  1.4321885532674257e-05  1.7669740488381664e-05  2.3636693302029734e-05  2.5014194810743124e-05  2.4516884244815577e-05  2.3372780341311878e-05  2.1990846497770806e-05  2.0500560372784806e-05  1.8947051204806938e-05  1.7353481571250770e-05  1.5739868023958680e-05  1.4127858152800398e-05  1.2540894945552339e-05  1.1002820961838955e-05  9.5358488138922943e-06  8.1577019943838941e-06  6.8758580096584073e-06  5.6712814216116472e-06  4.4469875490292374e-06  2.8719585144104127e-06  0.0000000000000000e+00  6.0000000000000002e-05  5.6101040199181613e-05  5.4888529699445609e-05  5.4501667428402556e-05  5.4367702224468640e-05  5.4305512329141563e-05  5.4253923532667398e-05  5.4188234108399167e-05  5.4093792799501163e-05  5.3957617003904476e-05  5.3765866475243420e-05  5.3503365060083528e-05  5.3153986080433776e-05  5.2701513459404052e-05  5.2130776272950126e-05  5.1428612739838587e-05  5.0581849666663927e-05  4.9549508329548494e-05  4.7998368765155839e-05  4.3371275142593071e-05  3.6475188174968818e-05  3.0910253180647861e-05  2.6772310945495400e-05  2.3596526067883712e-05  2.1094499592052120e-05  1.9085058447102814e-05  1.7449300297037079e-05  1.6115002977207711e-05  1.5071810854146892e-05  1.4455488599093393e-05  1.4833318732175181e-05  1.8012443563445061e-05  2.3831763833858210e-05  2.5172336730425111e-05  2.4655159191378623e-05  2.3499816498973721e-05  2.2109398652659445e-05  2.0611319606125246e-05  1.9050051294487858e-05  1.7448575090980625e-05  1.5826898993156153e-05  1.4206735257443733e-05  1.2611627871080480e-05  1.1065538429802056e-05  9.5908041932017429e-06  8.2052697899347504e-06  6.9165258396163867e-06  5.7056424145676679e-06  4.4756891539456743e-06  2.8950005900794064e-06  0.0000000000000000e+00  6.0000000000000002e-05  5.6337044148793202e-05  5.5149809628465639e-05  5.4770537720677093e-05  5.4638923039600660e-05  5.4577425469592883e-05  5.4525968712309774e-05  5.4460177381942390e-05  5.4365476696318587e-05  5.4228873819253707e-05  5.4036482812915599e-05  5.3773063127723374e-05  5.3422411904557383e-05  5.2968230263879028e-05  5.2395265150716612e-05  5.1690295489017025e-05  5.0840252680375410e-05  4.9805583746886104e-05  4.8261621253120275e-05  4.3965219396550084e-05  3.7471197591440728e-05  3.1954539490937064e-05  2.7761064948383335e-05  2.4515364260073922e-05  2.1946905796500237e-05  1.9877988853589859e-05  1.8189571310864233e-05  1.6808030101865037e-05  1.5720280580824120e-05  1.5055872766859728e-05  1.5363111905645302e-05  1.8378407263395804e-05  2.4042499154989126e-05  2.5336191703469613e-05  2.4795720596790143e-05  2.3628012494726921e-05  2.2228733166470302e-05  2.0722718460288129e-05  1.9153620688308043e-05  1.7544189278993158e-05  1.5914407965902109e-05  1.4286049012070408e-05  1.2682756288357848e-05  1.1128610485313954e-05  9.6460739723196371e-06  8.2531131043293068e-06  6.9574321272862944e-06  5.7402058832446663e-06  4.5045452676088962e-06  2.9179970286216846e-06  0.0000000000000000e+00  6.0000000000000002e-05  5.6567142052523304e-05  5.5410269272836342e-05  5.5040083662264774e-05  5.4911291006263015e-05  5.4850634605034183e-05  5.4799356709784189e-05  5.4733477857245411e-05  5.4638521638761843e-05  5.4501491775534851e-05  5.4308458613417495e-05  5.4044117618372168e-05  5.3692189632266331e-05  5.3236292681925377e-05  5.2661091428412045e-05  5.1953307183949300e-05  5.1099993670534676e-05  5.0063163818327777e-05  4.8529455506122766e-05  4.4530571834191688e-05  3.8410798115107098e-05  3.2974023546117014e-05  2.8745109591136550e-05  2.5440897699728982e-05  2.2812838703926280e-05  2.0688648854310094e-05  1.8950121010363889e-05  1.7522741228361102e-05  1.6390889524484833e-05  1.5677734851591821e-05  1.5912351902166064e-05  1.8767186929699525e-05  2.4268799277546830e-05  2.5505718736257943e-05  2.4938554253148606e-05  2.3757366075237547e-05  2.2348851643650211e-05  2.0834759641657544e-05  1.9257762306024869e-05  1.7640326974445584e-05  1.6002397594478120e-05  1.4365801837413624e-05  1.2754282365238498e-05  1.1192039033800966e-05  9.7016597918822748e-06  8.3012333128590709e-06  6.9985779732473233e-06  5.7749726401893216e-06  4.5335567355297594e-06  2.9409558194513807e-06  0.0000000000000000e+00  6.0000000000000002e-05  5.6791512332537999e-05  5.5669953518126509e-05  5.5310323677170018e-05  5.5184816613971836e-05  5.5125147738674435e-05  5.5074094749047768e-05  5.5008142519596059e-05  5.4912934546357732e-05  5.4775477782973168e-05  5.4581800796609299e-05  5.4316535467301168e-05  5.3963326213781517e-05  5.3505707672473806e-05  5.2928262052061886e-05  5.2217654638734353e-05  5.1361078391795271e-05  5.0322248732973187e-05  4.8801519543546323e-05  4.5071562110858974e-05  3.9299440545276275e-05  3.3968288018678423e-05  2.9723639497443403e-05  2.6372709413927106e-05  2.3692293499258049e-05  2.1517357701598489e-05  1.9731504285725125e-05  1.8259856375838579e-05  1.7084470432905871e-05  1.6321992056287910e-05  1.6482094386126603e-05  1.9178547793647484e-05  2.4510521181925678e-05  2.5680856783597731e-05  2.5083638853498332e-05  2.3887872734356232e-05  2.2469754979501643e-05  2.0947445629921962e-05  1.9362478991829390e-05  1.7736990990463183e-05  1.6090870524606088e-05  1.4445996158976266e-05  1.2826208283886807e-05  1.1255826004279167e-05  9.7575633254133430e-06  8.3496318338040717e-06  7.0399645359778734e-06  5.8099435923885491e-06  4.5627246281432387e-06  2.9638859602027289e-06  0.0000000000000000e+00  6.0000000000000002e-05  5.7010386816815061e-05  5.5928916805062996e-05  5.5581279285141043e-05  5.5459511350306132e-05  5.5400973210961734e-05  5.5350190181393430e-05  5.5284178413760607e-05  5.5188722374676414e-05  5.5050838777917229e-05  5.4856516302299651e-05  5.4590323624276463e-05  5.4235828608262325e-05  5.3776482197618424e-05  5.3196783964486797e-05  5.2483344652199093e-05  5.1623512516196776e-05  5.0582838072698111e-05  4.9077491333760642e-05  4.5591837845081560e-05  4.0142487193315438e-05  3.4937486226152949e-05  3.0696131427328607e-05  2.7310545411835878e-05  2.4585378465653466e-05  2.2364524502263004e-05  2.0534353546393303e-05  1.9020165604849682e-05  1.7801920481751149e-05  1.6989615821777794e-05  1.7073383681370225e-05  1.9612416078761100e-05  2.4767481949582346e-05  2.5861524894213603e-05  2.5230946212356342e-05  2.4019525790667134e-05  2.2591443387630940e-05  2.1060778689664688e-05  1.9467773520781975e-05  1.7834184118441358e-05  1.6179829398262237e-05  1.4526634408329704e-05  1.2898536240410069e-05  1.1319973347212604e-05  9.8137862753506727e-06  8.3983101224737318e-06  7.0815930231521236e-06  5.8451197269991202e-06  4.5920502146632290e-06  2.9867972311337585e-06  0.0000000000000000e+00  6.0000000000000002e-05  5.7224039559726032e-05  5.6187222828940659e-05  5.5852974997312304e-05  5.5735387668744343e-05  5.5678119689858059e-05  5.5627650482977725e-05  5.5561592644065948e-05  5.5465892116570340e-05  5.5327581724887134e-05  5.5132612093086618e-05  5.4865489057268773e-05  5.4509703788464752e-05  5.4048623228262537e-05  5.3466664111889450e-05  5.2750384015100238e-05  5.1887301640454923e-05  5.0844930632217654e-05  4.9357077677502446e-05  4.6094555157829121e-05  4.0945061949922658e-05  3.5882282834788128e-05  3.1662352723472598e-05  2.8254328258173689e-05  2.5492326569253304e-05  2.3230657501785256e-05  2.1359386218026412e-05  1.9804535241733485e-05  1.8544206682998408e-05  1.7681636901500210e-05  1.7687269193032335e-05  2.0068843927603281e-05  2.5039461230531356e-05  2.6047622381287708e-05  2.5380441480880500e-05  2.4152316462772425e-05  2.2713916426202405e-05  2.1174760881063377e-05  1.9573648604480895e-05  1.7931909131708607e-05  1.6269276856034195e-05  1.4607719024195929e-05  1.2971268444558478e-05  1.1384483032748583e-05  9.8703303697726259e-06  8.4472696662987336e-06  7.1234646844676442e-06  5.8805020995167892e-06  4.6215349407593894e-06  3.0097000147254570e-06  0.0000000000000000e+00  6.0000000000000002e-05  5.7432777758578124e-05  5.6444944248014106e-05  5.6125438211127401e-05  5.6012458956335391e-05  5.5956596161009716e-05  5.5906483252231861e-05  5.5840392374315257e-05  5.5744450803170130e-05  5.5605713618277704e-05  5.5410095156727292e-05  5.5142038755543406e-05  5.4784958744614768e-05  5.4322137748807735e-05  5.3737909449333249e-05  5.3018779516232203e-05  5.2152451293100828e-05  5.1108524307118310e-05  4.9640012595860599e-05  4.6582457013996365e-05  4.1711983167072997e-05  3.6803788511397282e-05  3.2622366257690341e-05  2.9204169876693215e-05  2.6413507160013590e-05  2.4116373709306177e-05  2.2207412601437496e-05  2.0613914420019611e-05  1.9312371543219118e-05  1.8399150694973953e-05  1.8324819304946775e-05  2.0547984308266077e-05  2.5326203032377729e-05  2.6239029027355136e-05  2.5532083362025581e-05  2.4286233944198799e-05  2.2837173023675772e-05  2.1289394070002418e-05  1.9680106896146257e-05  1.8030168788679426e-05  1.6359215539108639e-05  1.4689252453354921e-05  1.3044407119483300e-05  1.1449357049265239e-05  9.9271973597015845e-06  8.4965119807880275e-06  7.1655808057313462e-06  5.9160918239459068e-06  4.6511804092988146e-06  3.0326051527936030e-06  0.0000000000000000e+00  6.0000000000000002e-05  5.7636934417961879e-05  5.6702162383407122e-05  5.6398699102776182e-05  5.6290739500613243e-05  5.6236411917635846e-05  5.6186696207114827e-05  5.6120584827547133e-05  5.6024405504673999e-05  5.5885241483775973e-05  5.5688972508119268e-05  5.5419979732240607e-05  5.5061600487636375e-05  5.4597032761056765e-05  5.4010526945310614e-05  5.3288537947641208e-05  5.2418966941489916e-05  5.1373616035404862e-05  4.9926055387531553e-05  4.7057940457707885e-05  4.2447744733847110e-05  3.7703495265766693e-05  3.3576532042512286e-05  3.0160383399436598e-05  2.7349437625358889e-05  2.5022408750461011e-05  2.3079344018730577e-05  2.1449341895495900e-05  2.0107538969233517e-05  1.9143322882044807e-05  1.8987133434849165e-05  2.1050073146295329e-05  2.5627416845137652e-05  2.6435605331217050e-05  2.5685824330010941e-05  2.4421265479401634e-05  2.2961211504558729e-05  2.1404679937840139e-05  1.9787150995266748e-05  1.8128965835602346e-05  1.6449648090960866e-05  1.4771237151411405e-05  1.3117954501544974e-05  1.1514597402177552e-05  9.9843890168831153e-06  8.5460386061976836e-06  7.2079427039789698e-06  5.9518900646078530e-06  4.6809883635469292e-06  3.0555238346925105e-06  0.0000000000000000e+00  6.0000000000000002e-05  5.7836862470474155e-05  5.6958966899603358e-05  5.6672790515822997e-05  5.6570244455305399e-05  5.6517576550000560e-05  5.6468297182178350e-05  5.6402177285647717e-05  5.6305763330962204e-05  5.6166172379541926e-05  5.5969251190962560e-05  5.5699319026536989e-05  5.5339636051849549e-05  5.4873315287470666e-05  5.4284523585564523e-05  5.3559666109110619e-05  5.2686853998724795e-05  5.1640201780659009e-05  5.0214988478731915e-05  4.7523114047107450e-05  4.3156524582284937e-05  3.8583216974540602e-05  3.4525505996206942e-05  3.1123494011836789e-05  2.8300794902877384e-05  2.5949626877628524e-05  2.3976201199801471e-05  2.2311953108021079e-05  2.0930920418577243e-05  1.9915395373370655e-05  1.9675352771148838e-05  2.1575416707220009e-05  2.5942778131559451e-05  2.6637192803333346e-05  2.5841610857560900e-05  2.4557396442004427e-05  2.3086029615586529e-05  2.1520619991022010e-05  1.9894783451928325e-05  1.8228303008989047e-05  1.6540577158804755e-05  1.4853675583448838e-05  1.3191912840164114e-05  1.1580206112957128e-05  1.0041907131956930e-05  8.5958511047848868e-06  7.2505517234427458e-06  5.9878980292901878e-06  4.7109606723422038e-06  3.0784675112412141e-06  0.0000000000000000e+00  6.0000000000000002e-05  5.8032930109878178e-05  5.7215455459289722e-05  5.6947747845053606e-05  5.6850989804501930e-05  5.6800099934369697e-05  5.6751294125422476e-05  5.6685177088824945e-05  5.6588531432062081e-05  5.6448513397193640e-05  5.6250938279158869e-05  5.5980063705463183e-05  5.5619072497233413e-05  5.515099237389644