<?xml version="1.0"?>
<VTKFile type="UnstructuredGrid"  version="0.1"  >
<UnstructuredGrid>
<Piece  NumberOfPoints="2601" NumberOfCells="5000">
<Points>
<DataArray  type="Float64"  NumberOfComponents="3"  format="ascii">-1 0 0  -0.96 0 0  -0.92 0 0  -0.88 0 0  -0.84 0 0  -0.8 0 0  -0.76 0 0  -0.72 0 0  -0.6799999999999999 0 0  -0.64 0 0  -0.6 0 0  -0.5600000000000001 0 0  -0.52 0 0  -0.48 0 0  -0.4399999999999999 0 0  -0.4 0 0  -0.36 0 0  -0.32 0 0  -0.28 0 0  -0.24 0 0  -0.2 0 0  -0.16 0 0  -0.12 0 0  -0.07999999999999996 0 0  -0.04000000000000004 0 0  0 0 0  0.04000000000000004 0 0  0.08000000000000007 0 0  0.1200000000000001 0 0  0.1599999999999999 0 0  0.2 0 0  0.24 0 0  0.28 0 0  0.3200000000000001 0 0  0.3600000000000001 0 0  0.3999999999999999 0 0  0.4399999999999999 0 0  0.48 0 0  0.52 0 0  0.5600000000000001 0 0  0.6000000000000001 0 0  0.6399999999999999 0 0  0.6799999999999999 0 0  0.72 0 0  0.76 0 0  0.8 0 0  0.8400000000000001 0 0  0.8799999999999999 0 0  0.9199999999999999 0 0  0.96 0 0  1 0 0  -1 0.016 0  -0.96 0.016 0  -0.92 0.016 0  -0.88 0.016 0  -0.84 0.016 0  -0.8 0.016 0  -0.76 0.016 0  -0.72 0.016 0  -0.6799999999999999 0.016 0  -0.64 0.016 0  -0.6 0.016 0  -0.5600000000000001 0.016 0  -0.52 0.016 0  -0.48 0.016 0  -0.4399999999999999 0.016 0  -0.4 0.016 0  -0.36 0.016 0  -0.32 0.016 0  -0.28 0.016 0  -0.24 0.016 0  -0.2 0.016 0  -0.16 0.016 0  -0.12 0.016 0  -0.07999999999999996 0.016 0  -0.04000000000000004 0.016 0  0 0.016 0  0.04000000000000004 0.016 0  0.08000000000000007 0.016 0  0.1200000000000001 0.016 0  0.1599999999999999 0.016 0  0.2 0.016 0  0.24 0.016 0  0.28 0.016 0  0.3200000000000001 0.016 0  0.3600000000000001 0.016 0  0.3999999999999999 0.016 0  0.4399999999999999 0.016 0  0.48 0.016 0  0.52 0.016 0  0.5600000000000001 0.016 0  0.6000000000000001 0.016 0  0.6399999999999999 0.016 0  0.6799999999999999 0.016 0  0.72 0.016 0  0.76 0.016 0  0.8 0.016 0  0.8400000000000001 0.016 0  0.8799999999999999 0.016 0  0.9199999999999999 0.016 0  0.96 0.016 0  1 0.016 0  -1 0.032 0  -0.96 0.032 0  -0.92 0.032 0  -0.88 0.032 0  -0.84 0.032 0  -0.8 0.032 0  -0.76 0.032 0  -0.72 0.032 0  -0.6799999999999999 0.032 0  -0.64 0.032 0  -0.6 0.032 0  -0.5600000000000001 0.032 0  -0.52 0.032 0  -0.48 0.032 0  -0.4399999999999999 0.032 0  -0.4 0.032 0  -0.36 0.032 0  -0.32 0.032 0  -0.28 0.032 0  -0.24 0.032 0  -0.2 0.032 0  -0.16 0.032 0  -0.12 0.032 0  -0.07999999999999996 0.032 0  -0.04000000000000004 0.032 0  0 0.032 0  0.04000000000000004 0.032 0  0.08000000000000007 0.032 0  0.1200000000000001 0.032 0  0.1599999999999999 0.032 0  0.2 0.032 0  0.24 0.032 0  0.28 0.032 0  0.3200000000000001 0.032 0  0.3600000000000001 0.032 0  0.3999999999999999 0.032 0  0.4399999999999999 0.032 0  0.48 0.032 0  0.52 0.032 0  0.5600000000000001 0.032 0  0.6000000000000001 0.032 0  0.6399999999999999 0.032 0  0.6799999999999999 0.032 0  0.72 0.032 0  0.76 0.032 0  0.8 0.032 0  0.8400000000000001 0.032 0  0.8799999999999999 0.032 0  0.9199999999999999 0.032 0  0.96 0.032 0  1 0.032 0  -1 0.04800000000000001 0  -0.96 0.04800000000000001 0  -0.92 0.04800000000000001 0  -0.88 0.04800000000000001 0  -0.84 0.04800000000000001 0  -0.8 0.04800000000000001 0  -0.76 0.04800000000000001 0  -0.72 0.04800000000000001 0  -0.6799999999999999 0.04800000000000001 0  -0.64 0.04800000000000001 0  -0.6 0.04800000000000001 0  -0.5600000000000001 0.04800000000000001 0  -0.52 0.04800000000000001 0  -0.48 0.04800000000000001 0  -0.4399999999999999 0.04800000000000001 0  -0.4 0.04800000000000001 0  -0.36 0.04800000000000001 0  -0.32 0.04800000000000001 0  -0.28 0.04800000000000001 0  -0.24 0.04800000000000001 0  -0.2 0.04800000000000001 0  -0.16 0.04800000000000001 0  -0.12 0.04800000000000001 0  -0.07999999999999996 0.04800000000000001 0  -0.04000000000000004 0.04800000000000001 0  0 0.04800000000000001 0  0.04000000000000004 0.04800000000000001 0  0.08000000000000007 0.04800000000000001 0  0.1200000000000001 0.04800000000000001 0  0.1599999999999999 0.04800000000000001 0  0.2 0.04800000000000001 0  0.24 0.04800000000000001 0  0.28 0.04800000000000001 0  0.3200000000000001 0.04800000000000001 0  0.3600000000000001 0.04800000000000001 0  0.3999999999999999 0.04800000000000001 0  0.4399999999999999 0.04800000000000001 0  0.48 0.04800000000000001 0  0.52 0.04800000000000001 0  0.5600000000000001 0.04800000000000001 0  0.6000000000000001 0.04800000000000001 0  0.6399999999999999 0.04800000000000001 0  0.6799999999999999 0.04800000000000001 0  0.72 0.04800000000000001 0  0.76 0.04800000000000001 0  0.8 0.04800000000000001 0  0.8400000000000001 0.04800000000000001 0  0.8799999999999999 0.04800000000000001 0  0.9199999999999999 0.04800000000000001 0  0.96 0.04800000000000001 0  1 0.04800000000000001 0  -1 0.064 0  -0.96 0.064 0  -0.92 0.064 0  -0.88 0.064 0  -0.84 0.064 0  -0.8 0.064 0  -0.76 0.064 0  -0.72 0.064 0  -0.6799999999999999 0.064 0  -0.64 0.064 0  -0.6 0.064 0  -0.5600000000000001 0.064 0  -0.52 0.064 0  -0.48 0.064 0  -0.4399999999999999 0.064 0  -0.4 0.064 0  -0.36 0.064 0  -0.32 0.064 0  -0.28 0.064 0  -0.24 0.064 0  -0.2 0.064 0  -0.16 0.064 0  -0.12 0.064 0  -0.07999999999999996 0.064 0  -0.04000000000000004 0.064 0  0 0.064 0  0.04000000000000004 0.064 0  0.08000000000000007 0.064 0  0.1200000000000001 0.064 0  0.1599999999999999 0.064 0  0.2 0.064 0  0.24 0.064 0  0.28 0.064 0  0.3200000000000001 0.064 0  0.3600000000000001 0.064 0  0.3999999999999999 0.064 0  0.4399999999999999 0.064 0  0.48 0.064 0  0.52 0.064 0  0.5600000000000001 0.064 0  0.6000000000000001 0.064 0  0.6399999999999999 0.064 0  0.6799999999999999 0.064 0  0.72 0.064 0  0.76 0.064 0  0.8 0.064 0  0.8400000000000001 0.064 0  0.8799999999999999 0.064 0  0.9199999999999999 0.064 0  0.96 0.064 0  1 0.064 0  -1 0.08 0  -0.96 0.08 0  -0.92 0.08 0  -0.88 0.08 0  -0.84 0.08 0  -0.8 0.08 0  -0.76 0.08 0  -0.72 0.08 0  -0.6799999999999999 0.08 0  -0.64 0.08 0  -0.6 0.08 0  -0.5600000000000001 0.08 0  -0.52 0.08 0  -0.48 0.08 0  -0.4399999999999999 0.08 0  -0.4 0.08 0  -0.36 0.08 0  -0.32 0.08 0  -0.28 0.08 0  -0.24 0.08 0  -0.2 0.08 0  -0.16 0.08 0  -0.12 0.08 0  -0.07999999999999996 0.08 0  -0.04000000000000004 0.08 0  0 0.08 0  0.04000000000000004 0.08 0  0.08000000000000007 0.08 0  0.1200000000000001 0.08 0  0.1599999999999999 0.08 0  0.2 0.08 0  0.24 0.08 0  0.28 0.08 0  0.3200000000000001 0.08 0  0.3600000000000001 0.08 0  0.3999999999999999 0.08 0  0.4399999999999999 0.08 0  0.48 0.08 0  0.52 0.08 0  0.5600000000000001 0.08 0  0.6000000000000001 0.08 0  0.6399999999999999 0.08 0  0.6799999999999999 0.08 0  0.72 0.08 0  0.76 0.08 0  0.8 0.08 0  0.8400000000000001 0.08 0  0.8799999999999999 0.08 0  0.9199999999999999 0.08 0  0.96 0.08 0  1 0.08 0  -1 0.09600000000000002 0  -0.96 0.09600000000000002 0  -0.92 0.09600000000000002 0  -0.88 0.09600000000000002 0  -0.84 0.09600000000000002 0  -0.8 0.09600000000000002 0  -0.76 0.09600000000000002 0  -0.72 0.09600000000000002 0  -0.6799999999999999 0.09600000000000002 0  -0.64 0.09600000000000002 0  -0.6 0.09600000000000002 0  -0.5600000000000001 0.09600000000000002 0  -0.52 0.09600000000000002 0  -0.48 0.09600000000000002 0  -0.4399999999999999 0.09600000000000002 0  -0.4 0.09600000000000002 0  -0.36 0.09600000000000002 0  -0.32 0.09600000000000002 0  -0.28 0.09600000000000002 0  -0.24 0.09600000000000002 0  -0.2 0.09600000000000002 0  -0.16 0.09600000000000002 0  -0.12 0.09600000000000002 0  -0.07999999999999996 0.09600000000000002 0  -0.04000000000000004 0.09600000000000002 0  0 0.09600000000000002 0  0.04000000000000004 0.09600000000000002 0  0.08000000000000007 0.09600000000000002 0  0.1200000000000001 0.09600000000000002 0  0.1599999999999999 0.09600000000000002 0  0.2 0.09600000000000002 0  0.24 0.09600000000000002 0  0.28 0.09600000000000002 0  0.3200000000000001 0.09600000000000002 0  0.3600000000000001 0.09600000000000002 0  0.3999999999999999 0.09600000000000002 0  0.4399999999999999 0.09600000000000002 0  0.48 0.09600000000000002 0  0.52 0.09600000000000002 0  0.5600000000000001 0.09600000000000002 0  0.6000000000000001 0.09600000000000002 0  0.6399999999999999 0.09600000000000002 0  0.6799999999999999 0.09600000000000002 0  0.72 0.09600000000000002 0  0.76 0.09600000000000002 0  0.8 0.09600000000000002 0  0.8400000000000001 0.09600000000000002 0  0.8799999999999999 0.09600000000000002 0  0.9199999999999999 0.09600000000000002 0  0.96 0.09600000000000002 0  1 0.09600000000000002 0  -1 0.112 0  -0.96 0.112 0  -0.92 0.112 0  -0.88 0.112 0  -0.84 0.112 0  -0.8 0.112 0  -0.76 0.112 0  -0.72 0.112 0  -0.6799999999999999 0.112 0  -0.64 0.112 0  -0.6 0.112 0  -0.5600000000000001 0.112 0  -0.52 0.112 0  -0.48 0.112 0  -0.4399999999999999 0.112 0  -0.4 0.112 0  -0.36 0.112 0  -0.32 0.112 0  -0.28 0.112 0  -0.24 0.112 0  -0.2 0.112 0  -0.16 0.112 0  -0.12 0.112 0  -0.07999999999999996 0.112 0  -0.04000000000000004 0.112 0  0 0.112 0  0.04000000000000004 0.112 0  0.08000000000000007 0.112 0  0.1200000000000001 0.112 0  0.1599999999999999 0.112 0  0.2 0.112 0  0.24 0.112 0  0.28 0.112 0  0.3200000000000001 0.112 0  0.3600000000000001 0.112 0  0.3999999999999999 0.112 0  0.4399999999999999 0.112 0  0.48 0.112 0  0.52 0.112 0  0.5600000000000001 0.112 0  0.6000000000000001 0.112 0  0.6399999999999999 0.112 0  0.6799999999999999 0.112 0  0.72 0.112 0  0.76 0.112 0  0.8 0.112 0  0.8400000000000001 0.112 0  0.8799999999999999 0.112 0  0.9199999999999999 0.112 0  0.96 0.112 0  1 0.112 0  -1 0.128 0  -0.96 0.128 0  -0.92 0.128 0  -0.88 0.128 0  -0.84 0.128 0  -0.8 0.128 0  -0.76 0.128 0  -0.72 0.128 0  -0.6799999999999999 0.128 0  -0.64 0.128 0  -0.6 0.128 0  -0.5600000000000001 0.128 0  -0.52 0.128 0  -0.48 0.128 0  -0.4399999999999999 0.128 0  -0.4 0.128 0  -0.36 0.128 0  -0.32 0.128 0  -0.28 0.128 0  -0.24 0.128 0  -0.2 0.128 0  -0.16 0.128 0  -0.12 0.128 0  -0.07999999999999996 0.128 0  -0.04000000000000004 0.128 0  0 0.128 0  0.04000000000000004 0.128 0  0.08000000000000007 0.128 0  0.1200000000000001 0.128 0  0.1599
[...]
<PointData  Scalars="f_100"> 
<DataArray  type="Float64"  Name="f_100"  format="ascii">6.0000000000000002e-05  5.4288983029617742e-05  5.3038641072039220e-05  5.2645855154834980e-05  5.2517057931999569e-05  5.2468105074381379e-05  5.2439143543345346e-05  5.2408714996924714e-05  5.2366631104857989e-05  5.2305274724507474e-05  5.2216762040518520e-05  5.2092029971956661e-05  5.1920632265327507e-05  5.1690877475049721e-05  5.1390161890717026e-05  5.1005077197315696e-05  5.0517976726715835e-05  4.9871520934470579e-05  4.8750659967744353e-05  4.0256179790907160e-05  2.9830222436658706e-05  2.5063195127537965e-05  2.1781970840516164e-05  1.9312231200840059e-05  1.7372369588667365e-05  1.5807595899482207e-05  1.4525417104451542e-05  1.3480651375207720e-05  1.2699250363913329e-05  1.2389557735466065e-05  1.3329297532344384e-05  1.8685327476674678e-05  2.6378996494881830e-05  2.8108275674838150e-05  2.7767836317756266e-05  2.6727648431334204e-05  2.5459269258937092e-05  2.4106121500099416e-05  2.2708230368404179e-05  2.1275769111898791e-05  1.9812648921624016e-05  1.8324023703143482e-05  1.6818384753926009e-05  1.5307493874381906e-05  1.3804818859207346e-05  1.2321401961690849e-05  1.0854516715756855e-05  9.3538831511009764e-06  7.6195173585086189e-06  5.0121594455308569e-06  0.0000000000000000e+00  6.0000000000000002e-05  5.4563063994929418e-05  5.3306015085553894e-05  5.2910237289037581e-05  5.2780479347733503e-05  5.2731202708389117e-05  5.2702103608628964e-05  5.2671572311865235e-05  5.2629360269284302e-05  5.2567814558341215e-05  5.2479018176917291e-05  5.2353870022789237e-05  5.2181878492908498e-05  5.1951299086441809e-05  5.1649468536585634e-05  5.1262917100468441e-05  5.0773959347820087e-05  5.0125549296574818e-05  4.8979099462306433e-05  4.1294757634155392e-05  3.1302086704589878e-05  2.6303009434098392e-05  2.2845737986258789e-05  2.0245779544447508e-05  1.8205245593148329e-05  1.6560177171691757e-05  1.5212370356926148e-05  1.4112685933817651e-05  1.3283828688790084e-05  1.2930300315146118e-05  1.3822923354969057e-05  1.8880017762329505e-05  2.6496425629663145e-05  2.8251734905080504e-05  2.7912572755867507e-05  2.6868074038004793e-05  2.5593670129561306e-05  2.4233926915887157e-05  2.2829189052836778e-05  2.1389703052703089e-05  1.9919390472592841e-05  1.8423412303043784e-05  1.6910283044869263e-05  1.5391809080247859e-05  1.3881523929641105e-05  1.2390555025543800e-05  1.0916281931531491e-05  9.4085646171604499e-06  7.6676234515374523e-06  5.0545820227661304e-06  0.0000000000000000e+00  6.0000000000000002e-05  5.4833099738049805e-05  5.3572568515170251e-05  5.3175262961354506e-05  5.3045005686081601e-05  5.2995550946468010e-05  5.2966360199242877e-05  5.2935740438695438e-05  5.2893404383693452e-05  5.2831670059284130e-05  5.2742589316042584e-05  5.2617023563826713e-05  5.2444435885419970e-05  5.2213028610666811e-05  5.1910079018010935e-05  5.1522058531507053e-05  5.1031267131921380e-05  5.0381159832835516e-05  4.9215701530637362e-05  4.2245575724195361e-05  3.2761524361028590e-05  2.7539917802806206e-05  2.3918344487108192e-05  2.1194031158272347e-05  1.9055984794308776e-05  1.7332359389315118e-05  1.5919786273633948e-05  1.4765391690172872e-05  1.3888580974740801e-05  1.3489375275615576e-05  1.4327033228360757e-05  1.9116840766278953e-05  2.6631228875800487e-05  2.8401544275015070e-05  2.8059849686004455e-05  2.7009795851543157e-05  2.5728952787516966e-05  2.4362460998516421e-05  2.2950804804086200e-05  2.1504247604230711e-05  2.0026703614977156e-05  1.8523335336391090e-05  1.7002678757345997e-05  1.5476584419711022e-05  1.3958651664410484e-05  1.2460093525970642e-05  1.0978396257935944e-05  9.4635586345760086e-06  7.7159785568773508e-06  5.0968759706084739e-06  0.0000000000000000e+00  6.0000000000000002e-05  5.5098294409681984e-05  5.3838260673662338e-05  5.3440925318934570e-05  5.3310639321497221e-05  5.3261155071093523e-05  5.3231919526650209e-05  5.3201225897279548e-05  5.3158770085768647e-05  5.3096847929223656e-05  5.3007482214401137e-05  5.2881497410689132e-05  5.2708311325772485e-05  5.2476073004481357e-05  5.2172000359376450e-05  5.1782508487931692e-05  5.1289906297921377e-05  5.0638340387375206e-05  4.9459955638272463e-05  4.3120468547051967e-05  3.4172294709739039e-05  2.8767402273592520e-05  2.4996949827692687e-05  2.2155523530035726e-05  1.9923905634557359e-05  1.8123958477674422e-05  1.6647816253515471e-05  1.5439158655579660e-05  1.4514093319795085e-05  1.4067627387692033e-05  1.4844047228869157e-05  1.9390580870297970e-05  2.6783682629355170e-05  2.8557798460940789e-05  2.8209706240132006e-05  2.7152828919509096e-05  2.5865124514343711e-05  2.4491728535773714e-05  2.3073081560967125e-05  2.1619406351077689e-05  2.0134591708681382e-05  1.8623795950635156e-05  1.7095574800857358e-05  1.5561822526209638e-05  1.4036204372180325e-05  1.2530019364386749e-05  1.1040860993410915e-05  9.5188654031365193e-06  7.7645810824123466e-06  5.1390305162997179e-06  0.0000000000000000e+00  6.0000000000000002e-05  5.5358089857916729e-05  5.4103067099745506e-05  5.3707221642852440e-05  5.3577383947781343e-05  5.3528020801699508e-05  5.3498787958872563e-05  5.3468035272762227e-05  5.3425464045934034e-05  5.3363354887560633e-05  5.3273703634817102e-05  5.3147298373844286e-05  5.2973511678634890e-05  5.2740439191467516e-05  5.2435239535688765e-05  5.2044273903618175e-05  5.1549883000989700e-05  5.0897083576812745e-05  4.9711346025122664e-05  4.3929976675194549e-05  3.5516935952780641e-05  2.9980772633690189e-05  2.6079111083250341e-05  2.3128989612549397e-05  2.0808455154416565e-05  1.8934888068384915e-05  1.7396691211452964e-05  1.6134440750431030e-05  1.5160991626060542e-05  1.4665883676645422e-05  1.5376004944207031e-05  1.9697522076819894e-05  2.6953988785625417e-05  2.8720567814851594e-05  2.8362171245827920e-05  2.7297184965613900e-05  2.6002191550229155e-05  2.4621733981846859e-05  2.3196023141004673e-05  2.1735182817041393e-05  2.0243058069902327e-05  1.8724797257526235e-05  1.7188974058997864e-05  1.5647526022442114e-05  1.4114184373883017e-05  1.2600334491959043e-05  1.1103677560626167e-05  9.5744854287625317e-06  7.8134302017932728e-06  5.1810419830949833e-06  0.0000000000000000e+00  6.0000000000000002e-05  5.5612122332432123e-05  5.4366977444268788e-05  5.3974153120081090e-05  5.3845244509258750e-05  5.3796154273523818e-05  5.3766972014659557e-05  5.3736175215042679e-05  5.3693492969152291e-05  5.3631197674610467e-05  5.3541260351463703e-05  5.3414433265551597e-05  5.3240043799647413e-05  5.3006134073835063e-05  5.2699803486943895e-05  5.2307361663223091e-05  5.1811203321405016e-05  5.1157385349859408e-05  4.9969365564864311e-05  4.4683347373026081e-05  3.6788899333909610e-05  3.1176272932509466e-05  2.7162663559298073e-05  2.4113304971655837e-05  2.1709176062909980e-05  1.9765137470261470e-05  1.8166706995982549e-05  1.6851748072665945e-05  1.5829944328202996e-05  1.5284980626935277e-05  1.5924666850081728e-05  2.0035035409722460e-05  2.7142276590488653e-05  2.8889898741779397e-05  2.8517263737387840e-05  2.7442872571497400e-05  2.6140159153582210e-05  2.4752481479667594e-05  2.3319633252589521e-05  2.1851580475035001e-05  2.0352105980584556e-05  1.8826342341877230e-05  1.7282879396627541e-05  1.5733697524805175e-05  1.4192594002958990e-05  1.2671040903061936e-05  1.1166847486835359e-05  9.6304194744920451e-06  7.8625257478924026e-06  5.2229124190900428e-06  0.0000000000000000e+00  6.0000000000000002e-05  5.5860186555799966e-05  5.4629993982094287e-05  5.4241724658329753e-05  5.4114227143820772e-05  5.4065562020117306e-05  5.4036478358686649e-05  5.4005652438363076e-05  5.3962863596434242e-05  5.3900383054436141e-05  5.3810159154040351e-05  5.3682908905614826e-05  5.3507914543043707e-05  5.3273164542177202e-05  5.2965699130008530e-05  5.2571778614215645e-05  5.2073873258652077e-05  5.1419243836823634e-05  5.0233525510893819e-05  4.5388616478689996e-05  3.7987838822323112e-05  3.2350824153654061e-05  2.8245688197471261e-05  2.5107469961361905e-05  2.2625695304483820e-05  2.0614764187456407e-05  1.8958219872255484e-05  1.7591645488442097e-05  1.6521666390386489e-05  1.5925780660405119e-05  1.6491590525115981e-05  2.0401283551586674e-05  2.7348606624070759e-05  2.9065813977618503e-05  2.8674993383962674e-05  2.7589897327156213e-05  2.6279031650315930e-05  2.4883974879403307e-05  2.3443915505035713e-05  2.1968602755280645e-05  2.0461738696223039e-05  1.8928434268785424e-05  1.7377293665775850e-05  1.5820339647040264e-05  1.4271435605544062e-05  1.2742140629881586e-05  1.1230372387697510e-05  9.6866685200133697e-06  7.9118681258752814e-06  5.2646484684474244e-06  0.0000000000000000e+00  6.0000000000000002e-05  5.6102205958178069e-05  5.4892130566657836e-05  5.4509944731336810e-05  5.4384339134777911e-05  5.4336250958569209e-05  5.4307313797504725e-05  5.4276473720961255e-05  5.4233582706101389e-05  5.4170917817210049e-05  5.4080406851244844e-05  5.3952732126153167e-05  5.3777130767962123e-05  5.3541537483540667e-05  5.3232933368454040e-05  5.2837531576951655e-05  5.2337898729193175e-05  5.1682658443162878e-05  5.0503362009373617e-05  4.6052727259019729e-05  3.9116803919790150e-05  3.3501993954477728e-05  2.9326512164848343e-05  2.6110609612193271e-05  2.3557724146261064e-05  2.1483894389029178e-05  1.9771647560022275e-05  1.8354754719063281e-05  1.7236923953239614e-05  1.6589182785233326e-05  1.7078188788182110e-05  2.0795009176036335e-05  2.7572975737900264e-05  2.9248312797504524e-05  2.8835360854655992e-05  2.7738261957917846e-05  2.6418812475427960e-05  2.5016217754018266e-05  2.3568873416985355e-05  2.2086253052107875e-05  2.0571959452312707e-05  1.9031076089589895e-05  1.7472219710505033e-05  1.5907455003232078e-05  1.4350711540617171e-05  1.2813635737968568e-05  1.1294253953951476e-05  9.7432337282258991e-06  7.9614582417750601e-06  5.3062604448327787e-06  0.0000000000000000e+00  6.0000000000000002e-05  5.6338208066696808e-05  5.5153411889659633e-05  5.4778825245282235e-05  5.4655588869075807e-05  5.4608228376689795e-05  5.4579485276020499e-05  5.4548645904748212e-05  5.4505657114836341e-05  5.4442808781184791e-05  5.4352010273663726e-05  5.4223909775563416e-05  5.4047699343677247e-05  5.3811259788107358e-05  5.3501513100704748e-05  5.3104627353134758e-05  5.2603285566774008e-05  5.1947629146784464e-05  5.0778440110099603e-05  4.6681660945673703e-05  4.0180579679479194e-05  3.4628017579553516e-05  3.0403721361755706e-05  2.7121982429480768e-05  2.4505064459561783e-05  2.2372727783463562e-05  2.0607473400670896e-05  1.9141758419866435e-05  1.7976539369404871e-05  1.7276130230745281e-05  1.7685774668680113e-05  2.1215383111589656e-05  2.7815322189001529e-05  2.9437371181837016e-05  2.8998358136974381e-05  2.7887966434326012e-05  2.6559504208957918e-05  2.5149213412645970e-05  2.3694510423521148e-05  2.2204534729625067e-05  2.0682771469691105e-05  1.9134270846791542e-05  1.7567660370919958e-05  1.5995046210277113e-05  1.4430424180118873e-05  1.2885528322573672e-05  1.1358493940438151e-05  9.8001164175780019e-06  8.0112974433126272e-06  5.3477615734525791e-06  0.0000000000000000e+00  6.0000000000000002e-05  5.6568304204386017e-05  5.5413872943618032e-05  5.5048381419277061e-05  5.4927985799918541e-05  5.4881501921541911e-05  5.4852999874330971e-05  5.4822175894979813e-05  5.4779093678550064e-05  5.4716062794339379e-05  5.4624976276182804e-05  5.4496448721815538e-05  5.4319627153941992e-05  5.4082338354732810e-05  5.3771445226798209e-05  5.3373072732951855e-05  5.2870039524458989e-05  5.2214155964020255e-05  5.1058355870359627e-05  4.7280565116065293e-05  4.1184717478371166e-05  3.5727805133414941e-05  3.1476176172495742e-05  2.8140993450273968e-05  2.5467618322527235e-05  2.3281544980997762e-05  2.1466252344284676e-05  1.9953405449500878e-05  1.8741396528403800e-05  1.7987616658441845e-05  1.8315596692351880e-05  2.1661895342791675e-05  2.8075530501221644e-05  2.9632941963277961e-05  2.9163968822107651e-05  2.8039008070058131e-05  2.6701108607989271e-05  2.5282964912369389e-05  2.3820829882279801e-05  2.2323451126482819e-05  2.0794177958976447e-05  1.9238021578122282e-05  1.7663618486477948e-05  1.6083115889918774e-05  1.4510575909048654e-05  1.2957820505630395e-05  1.1423094157054150e-05  9.8573180391519793e-06  8.0613874703886154e-06  5.3891673735907548e-06  0.0000000000000000e+00  6.0000000000000002e-05  5.6792672790614637e-05  5.5673558612247395e-05  5.5318631674600852e-05  5.5201540412238731e-05  5.5156079588836476e-05  5.5127864804771518e-05  5.5097070659899065e-05  5.5053899293090444e-05  5.4990686735755515e-05  5.4899311740001452e-05  5.4770355855199101e-05  5.4592921100597374e-05  5.4354780095543225e-05  5.4042736654003051e-05  5.3642874501120477e-05  5.3138166277840297e-05  5.2482238554023361e-05  5.1342737029211842e-05  4.7853872902152460e-05  4.2134980825293949e-05  3.6800919776985376e-05  3.2543026591489112e-05  2.9167209027695052e-05  2.6445399374556533e-05  2.4210716298549836e-05  2.2348618046329379e-05  2.0790516901191974e-05  1.9532446440992365e-05  1.8724691827797533e-05  1.8968867000330665e-05  2.2134276733086613e-05  2.8353435776765745e-05  2.9834954974232118e-05  2.9332168368107243e-05  2.8191381611982677e-05  2.6843626636029165e-05  2.5417475068888234e-05  2.3947835078803985e-05  2.2443005559908889e-05  2.0906182124267310e-05  1.9342331319916769e-05  1.7760096898724663e-05  1.6171666670428072e-05  1.4591169125547126e-05  1.3030514433271344e-05  1.1488056461294171e-05  9.9148401576475493e-06  8.1117304132156003e-06  5.4304951581496050e-06  0.0000000000000000e+00  6.0000000000000002e-05  5.7011545649990869e-05  5.5932523334489228e-05  5.5589597528643094e-05  5.5476264189774233e-05  5.5431969712806254e-05  5.5404087409066124e-05  5.5373337230330961e-05  5.5330080894812937e-05  5.5266687516769328e-05  5.5175023574320162e-05  5.5045638090617283e-05  5.4867588106579137e-05  5.4628591939757640e-05  5.4315394301496982e-05  5.3914039442045251e-05  5.3407671429049551e-05  5.2751875935726239e-05  5.1631242630115076e-05  4.8405409995211211e-05  4.3037039654221944e-05  3.7847530762502205e-05  3.3603724814487804e-05  3.0200371943569299e-05  2.7438545051471856e-05  2.5160711429551392e-05  2.3255290684507271e-05  2.1653992665400079e-05  2.0350713079848990e-05  1.9488467187843228e-05  1.9646784150232765e-05  2.2632442821730571e-05  2.8648827308438184e-05  3.0043317210807402e-05  2.9502924350037982e-05  2.8345079325637764e-05  2.6987058490828572e-05  2.5552746466456347e-05  2.4075529231325236e-05  2.2563201329161303e-05  2.1018787166240520e-05  1.9447203109912720e-05  1.7857098453559624e-05  1.6260701187994644e-05  1.4672206240967761e-05  1.3103612273785344e-05  1.1553382752099716e-05  9.9726844355649191e-06  8.1623286764881875e-06  5.4717636305546247e-06  0.0000000000000000e+00  6.0000000000000002e-05  5.7225196833061882e-05  5.6190830803890245e-05  5.5861303490474138e-05  5.5752169582771190e-05  5.5709180956253276e-05  5.5681675155492404e-05  5.5650982699216296e-05  5.5607645461030915e-05  5.5544072081936207e-05  5.5452118717758318e-05  5.5322302369508334e-05  5.5143635118428000e-05  5.4903780836872434e-05  5.4589425104271665e-05  5.4186574344246132e-05  5.3678560511333416e-05  5.3023066295448335e-05  5.1923561887394581e-05  4.8938488676970551e-05  4.3896312535954657e-05  3.8868350771101714e-05  3.4658034367385110e-05  3.1240416079348478e-05  2.8447329208040905e-05  2.6132109652607259e-05  2.4187085278469288e-05  2.2544818397918881e-05  2.1197299481316669e-05  2.0280121636744743e-05  2.0350551974309958e-05  2.3156453514674443e-05  2.8961451425787799e-05  3.0257913026252955e-05  2.9676196704523440e-05  2.8500091078737737e-05  2.7131403631484337e-05  2.5688781467394835e-05  2.4203915495133104e-05  2.2684041718519781e-05  2.1131996284759503e-05  1.9552639989583466e-05  1.7954626003116472e-05  1.6350222087881076e-05  1.4753689679941609e-05  1.3177116215938206e-05  1.1619074964781487e-05  1.0030852620011456e-05  8.2131849483280258e-06  5.5129925626053892e-06  0.0000000000000000e+00  6.0000000000000002e-05  5.7433933532951412e-05  5.6448553676968483e-05  5.6133776955709289e-05  5.6029269975544994e-05  5.5987722300531633e-05  5.5960635635993099e-05  5.5930014221074610e-05  5.5886600010360204e-05  5.5822847409839763e-05  5.5730604139549466e-05  5.5600355661460321e-05  5.5421069108391478e-05  5.5180353759321279e-05  5.4864836016402511e-05  5.4460486004193355e-05  5.3950838994048555e-05  5.3295806866751144e-05  5.2219412524716138e-05  4.9455989331949521e-05  4.4717896149038229e-05  3.9864566820487841e-05  3.5706035485683280e-05  3.2287480238605757e-05  2.9472174842464866e-05  2.7125610389272088e-05  2.5144920387580293e-05  2.3464072822641073e-05  2.2073394113212057e-05  2.1100907566568201e-05  2.1081395528418137e-05  2.3706484247477979e-05  2.9291013560464791e-05  3.0478604364441852e-05  2.9851937974725111e-05  2.8656404424762798e-05  2.7276660805484948e-05  2.5825582221422378e-05  2.4332996966655556e-05  2.2805529999913327e-05  2.1245812681085158e-05  1.9658645006088014e-05  1.8052682407327755e-05  1.6440232025384002e-05  1.4835621880437628e-05  1.3251028467593523e-05  1.1685135066823900e-05  1.0089346531657322e-05  8.2643021730079129e-06  5.5542025395470818e-06  0.0000000000000000e+00  6.0000000000000002e-05  5.7638088749784878e-05  5.6705773273102322e-05  5.6407048098897753e-05  5.6307579653303995e-05  5.6267603035280858e-05  5.6240976563181643e-05  5.6210439011389422e-05  5.6166951602970817e-05  5.6103020513770656e-05  5.6010486840553054e-05  5.5879804965573573e-05  5.5699897076189940e-05  5.5458317704704074e-05  5.5141634013796744e-05  5.4735781229659817e-05  5.4224512287995439e-05  5.3570093867230202e-05  5.2518538759441154e-05  4.9960430503643763e-05  4.5506545501211348e-05  4.0837771881913620e-05  3.6748126929864596e-05  3.3341920933199645e-05  3.0513666755567347e-05  2.8142043996184062e-05  2.6129827111848213e-05  2.4412935327218494e-05  2.2980277511433840e-05  2.1952157244795197e-05  2.1840574916831465e-05  2.4282805452771959e-05  2.9637179547549728e-05  3.0705231042092710e-05  3.0030093560638721e-05  2.8814004688234178e-05  2.7422828076214721e-05  2.5963150674992430e-05  2.4462776687350825e-05  2.2927669435264041e-05  2.1360239559765063e-05  1.9765221213908646e-05  1.8151270535231803e-05  1.6530733666637584e-05  1.4918005293820522e-05  1.3325351254580810e-05  1.1751565054413690e-05  1.0148168055448862e-05  8.3156835266688905e-06  5.5954147608845413e-06  0.0000000000000000e+00  6.0000000000000002e-05  5.7838015411474428e-05  5.6962579255005420e-05  5.6681149762111270e-05  5.6587113767782791e-05  5.6548832747769919e-05  5.6522705767202410e-05  5.6492264345911087e-05  5.6448707340756577e-05  5.6384598442296932e-05  5.6291773854114774e-05  5.6160657311615630e-05  5.5980126050506753e-05  5.5737679697661786e-05  5.5419826096513718e-05  5.5012466842682677e-05  5.4499585751052779e-05  5.3845922479629451e-05  5.2820709063370789e-05  5.0454028806209827e-05  4.6266683013857414e-05  4.1789901959141783e-05  3.7785024759856015e-05  3.4404324083931320e-05  3.1572564047914389e-05  2.9182382719059423e-05  2.7142958348320015e-05  2.5392693825022734e-05  2.3919329185340529e-05  2.2835289551868885e-05  2.2629397595390926e-05  2.4885768061352328e-05  2.9999576197330800e-05  3.0937611087057311e-05  3.0210601978614804e-05  2.8972875052905400e-05  2.7569902851310518e-05  2.6101488580784150e-05  2.4593257647490263e-05  2.3050463278612095e-05  2.1475280130263096e-05  1.9872371676233829e-05  1.8250393266068836e-05  1.6621729689288473e-05  1.5000842384907538e-05  1.3400086819767400e-05  1.1818366949562376e-05  1.0207319132757156e-05  8.3673323954082930e-06  5.6366508873336979e-06  0.0000000000000000e+00  6.0000000000000002e-05  5.8034081706928380e-05  5.7219069283558222e-05  5.6956117338758747e-05  5.6867888301349412e-05  5.6831421311747769e-05  5.6805831192416804e-05  5.6775497559874877e-05  5.6731874367431875e-05  5.6667588279743500e-05  5.6574472246802445e-05  5.6442919761005997e-05  5.6261763090252129e-05  5.601844679146101