<?xml version="1.0"?>
<VTKFile type="UnstructuredGrid"  version="0.1"  >
<UnstructuredGrid>
<Piece  NumberOfPoints="2601" NumberOfCells="5000">
<Points>
<DataArray  type="Float64"  NumberOfComponents="3"  format="ascii">-1 0 0  -0.96 0 0  -0.92 0 0  -0.88 0 0  -0.84 0 0  -0.8 0 0  -0.76 0 0  -0.72 0 0  -0.6799999999999999 0 0  -0.64 0 0  -0.6 0 0  -0.5600000000000001 0 0  -0.52 0 0  -0.48 0 0  -0.4399999999999999 0 0  -0.4 0 0  -0.36 0 0  -0.32 0 0  -0.28 0 0  -0.24 0 0  -0.2 0 0  -0.16 0 0  -0.12 0 0  -0.07999999999999996 0 0  -0.04000000000000004 0 0  0 0 0  0.04000000000000004 0 0  0.08000000000000007 0 0  0.1200000000000001 0 0  0.1599999999999999 0 0  0.2 0 0  0.24 0 0  0.28 0 0  0.3200000000000001 0 0  0.3600000000000001 0 0  0.3999999999999999 0 0  0.4399999999999999 0 0  0.48 0 0  0.52 0 0  0.5600000000000001 0 0  0.6000000000000001 0 0  0.6399999999999999 0 0  0.6799999999999999 0 0  0.72 0 0  0.76 0 0  0.8 0 0  0.8400000000000001 0 0  0.8799999999999999 0 0  0.9199999999999999 0 0  0.96 0 0  1 0 0  -1 0.016 0  -0.96 0.016 0  -0.92 0.016 0  -0.88 0.016 0  -0.84 0.016 0  -0.8 0.016 0  -0.76 0.016 0  -0.72 0.016 0  -0.6799999999999999 0.016 0  -0.64 0.016 0  -0.6 0.016 0  -0.5600000000000001 0.016 0  -0.52 0.016 0  -0.48 0.016 0  -0.4399999999999999 0.016 0  -0.4 0.016 0  -0.36 0.016 0  -0.32 0.016 0  -0.28 0.016 0  -0.24 0.016 0  -0.2 0.016 0  -0.16 0.016 0  -0.12 0.016 0  -0.07999999999999996 0.016 0  -0.04000000000000004 0.016 0  0 0.016 0  0.04000000000000004 0.016 0  0.08000000000000007 0.016 0  0.1200000000000001 0.016 0  0.1599999999999999 0.016 0  0.2 0.016 0  0.24 0.016 0  0.28 0.016 0  0.3200000000000001 0.016 0  0.3600000000000001 0.016 0  0.3999999999999999 0.016 0  0.4399999999999999 0.016 0  0.48 0.016 0  0.52 0.016 0  0.5600000000000001 0.016 0  0.6000000000000001 0.016 0  0.6399999999999999 0.016 0  0.6799999999999999 0.016 0  0.72 0.016 0  0.76 0.016 0  0.8 0.016 0  0.8400000000000001 0.016 0  0.8799999999999999 0.016 0  0.9199999999999999 0.016 0  0.96 0.016 0  1 0.016 0  -1 0.032 0  -0.96 0.032 0  -0.92 0.032 0  -0.88 0.032 0  -0.84 0.032 0  -0.8 0.032 0  -0.76 0.032 0  -0.72 0.032 0  -0.6799999999999999 0.032 0  -0.64 0.032 0  -0.6 0.032 0  -0.5600000000000001 0.032 0  -0.52 0.032 0  -0.48 0.032 0  -0.4399999999999999 0.032 0  -0.4 0.032 0  -0.36 0.032 0  -0.32 0.032 0  -0.28 0.032 0  -0.24 0.032 0  -0.2 0.032 0  -0.16 0.032 0  -0.12 0.032 0  -0.07999999999999996 0.032 0  -0.04000000000000004 0.032 0  0 0.032 0  0.04000000000000004 0.032 0  0.08000000000000007 0.032 0  0.1200000000000001 0.032 0  0.1599999999999999 0.032 0  0.2 0.032 0  0.24 0.032 0  0.28 0.032 0  0.3200000000000001 0.032 0  0.3600000000000001 0.032 0  0.3999999999999999 0.032 0  0.4399999999999999 0.032 0  0.48 0.032 0  0.52 0.032 0  0.5600000000000001 0.032 0  0.6000000000000001 0.032 0  0.6399999999999999 0.032 0  0.6799999999999999 0.032 0  0.72 0.032 0  0.76 0.032 0  0.8 0.032 0  0.8400000000000001 0.032 0  0.8799999999999999 0.032 0  0.9199999999999999 0.032 0  0.96 0.032 0  1 0.032 0  -1 0.04800000000000001 0  -0.96 0.04800000000000001 0  -0.92 0.04800000000000001 0  -0.88 0.04800000000000001 0  -0.84 0.04800000000000001 0  -0.8 0.04800000000000001 0  -0.76 0.04800000000000001 0  -0.72 0.04800000000000001 0  -0.6799999999999999 0.04800000000000001 0  -0.64 0.04800000000000001 0  -0.6 0.04800000000000001 0  -0.5600000000000001 0.04800000000000001 0  -0.52 0.04800000000000001 0  -0.48 0.04800000000000001 0  -0.4399999999999999 0.04800000000000001 0  -0.4 0.04800000000000001 0  -0.36 0.04800000000000001 0  -0.32 0.04800000000000001 0  -0.28 0.04800000000000001 0  -0.24 0.04800000000000001 0  -0.2 0.04800000000000001 0  -0.16 0.04800000000000001 0  -0.12 0.04800000000000001 0  -0.07999999999999996 0.04800000000000001 0  -0.04000000000000004 0.04800000000000001 0  0 0.04800000000000001 0  0.04000000000000004 0.04800000000000001 0  0.08000000000000007 0.04800000000000001 0  0.1200000000000001 0.04800000000000001 0  0.1599999999999999 0.04800000000000001 0  0.2 0.04800000000000001 0  0.24 0.04800000000000001 0  0.28 0.04800000000000001 0  0.3200000000000001 0.04800000000000001 0  0.3600000000000001 0.04800000000000001 0  0.3999999999999999 0.04800000000000001 0  0.4399999999999999 0.04800000000000001 0  0.48 0.04800000000000001 0  0.52 0.04800000000000001 0  0.5600000000000001 0.04800000000000001 0  0.6000000000000001 0.04800000000000001 0  0.6399999999999999 0.04800000000000001 0  0.6799999999999999 0.04800000000000001 0  0.72 0.04800000000000001 0  0.76 0.04800000000000001 0  0.8 0.04800000000000001 0  0.8400000000000001 0.04800000000000001 0  0.8799999999999999 0.04800000000000001 0  0.9199999999999999 0.04800000000000001 0  0.96 0.04800000000000001 0  1 0.04800000000000001 0  -1 0.064 0  -0.96 0.064 0  -0.92 0.064 0  -0.88 0.064 0  -0.84 0.064 0  -0.8 0.064 0  -0.76 0.064 0  -0.72 0.064 0  -0.6799999999999999 0.064 0  -0.64 0.064 0  -0.6 0.064 0  -0.5600000000000001 0.064 0  -0.52 0.064 0  -0.48 0.064 0  -0.4399999999999999 0.064 0  -0.4 0.064 0  -0.36 0.064 0  -0.32 0.064 0  -0.28 0.064 0  -0.24 0.064 0  -0.2 0.064 0  -0.16 0.064 0  -0.12 0.064 0  -0.07999999999999996 0.064 0  -0.04000000000000004 0.064 0  0 0.064 0  0.04000000000000004 0.064 0  0.08000000000000007 0.064 0  0.1200000000000001 0.064 0  0.1599999999999999 0.064 0  0.2 0.064 0  0.24 0.064 0  0.28 0.064 0  0.3200000000000001 0.064 0  0.3600000000000001 0.064 0  0.3999999999999999 0.064 0  0.4399999999999999 0.064 0  0.48 0.064 0  0.52 0.064 0  0.5600000000000001 0.064 0  0.6000000000000001 0.064 0  0.6399999999999999 0.064 0  0.6799999999999999 0.064 0  0.72 0.064 0  0.76 0.064 0  0.8 0.064 0  0.8400000000000001 0.064 0  0.8799999999999999 0.064 0  0.9199999999999999 0.064 0  0.96 0.064 0  1 0.064 0  -1 0.08 0  -0.96 0.08 0  -0.92 0.08 0  -0.88 0.08 0  -0.84 0.08 0  -0.8 0.08 0  -0.76 0.08 0  -0.72 0.08 0  -0.6799999999999999 0.08 0  -0.64 0.08 0  -0.6 0.08 0  -0.5600000000000001 0.08 0  -0.52 0.08 0  -0.48 0.08 0  -0.4399999999999999 0.08 0  -0.4 0.08 0  -0.36 0.08 0  -0.32 0.08 0  -0.28 0.08 0  -0.24 0.08 0  -0.2 0.08 0  -0.16 0.08 0  -0.12 0.08 0  -0.07999999999999996 0.08 0  -0.04000000000000004 0.08 0  0 0.08 0  0.04000000000000004 0.08 0  0.08000000000000007 0.08 0  0.1200000000000001 0.08 0  0.1599999999999999 0.08 0  0.2 0.08 0  0.24 0.08 0  0.28 0.08 0  0.3200000000000001 0.08 0  0.3600000000000001 0.08 0  0.3999999999999999 0.08 0  0.4399999999999999 0.08 0  0.48 0.08 0  0.52 0.08 0  0.5600000000000001 0.08 0  0.6000000000000001 0.08 0  0.6399999999999999 0.08 0  0.6799999999999999 0.08 0  0.72 0.08 0  0.76 0.08 0  0.8 0.08 0  0.8400000000000001 0.08 0  0.8799999999999999 0.08 0  0.9199999999999999 0.08 0  0.96 0.08 0  1 0.08 0  -1 0.09600000000000002 0  -0.96 0.09600000000000002 0  -0.92 0.09600000000000002 0  -0.88 0.09600000000000002 0  -0.84 0.09600000000000002 0  -0.8 0.09600000000000002 0  -0.76 0.09600000000000002 0  -0.72 0.09600000000000002 0  -0.6799999999999999 0.09600000000000002 0  -0.64 0.09600000000000002 0  -0.6 0.09600000000000002 0  -0.5600000000000001 0.09600000000000002 0  -0.52 0.09600000000000002 0  -0.48 0.09600000000000002 0  -0.4399999999999999 0.09600000000000002 0  -0.4 0.09600000000000002 0  -0.36 0.09600000000000002 0  -0.32 0.09600000000000002 0  -0.28 0.09600000000000002 0  -0.24 0.09600000000000002 0  -0.2 0.09600000000000002 0  -0.16 0.09600000000000002 0  -0.12 0.09600000000000002 0  -0.07999999999999996 0.09600000000000002 0  -0.04000000000000004 0.09600000000000002 0  0 0.09600000000000002 0  0.04000000000000004 0.09600000000000002 0  0.08000000000000007 0.09600000000000002 0  0.1200000000000001 0.09600000000000002 0  0.1599999999999999 0.09600000000000002 0  0.2 0.09600000000000002 0  0.24 0.09600000000000002 0  0.28 0.09600000000000002 0  0.3200000000000001 0.09600000000000002 0  0.3600000000000001 0.09600000000000002 0  0.3999999999999999 0.09600000000000002 0  0.4399999999999999 0.09600000000000002 0  0.48 0.09600000000000002 0  0.52 0.09600000000000002 0  0.5600000000000001 0.09600000000000002 0  0.6000000000000001 0.09600000000000002 0  0.6399999999999999 0.09600000000000002 0  0.6799999999999999 0.09600000000000002 0  0.72 0.09600000000000002 0  0.76 0.09600000000000002 0  0.8 0.09600000000000002 0  0.8400000000000001 0.09600000000000002 0  0.8799999999999999 0.09600000000000002 0  0.9199999999999999 0.09600000000000002 0  0.96 0.09600000000000002 0  1 0.09600000000000002 0  -1 0.112 0  -0.96 0.112 0  -0.92 0.112 0  -0.88 0.112 0  -0.84 0.112 0  -0.8 0.112 0  -0.76 0.112 0  -0.72 0.112 0  -0.6799999999999999 0.112 0  -0.64 0.112 0  -0.6 0.112 0  -0.5600000000000001 0.112 0  -0.52 0.112 0  -0.48 0.112 0  -0.4399999999999999 0.112 0  -0.4 0.112 0  -0.36 0.112 0  -0.32 0.112 0  -0.28 0.112 0  -0.24 0.112 0  -0.2 0.112 0  -0.16 0.112 0  -0.12 0.112 0  -0.07999999999999996 0.112 0  -0.04000000000000004 0.112 0  0 0.112 0  0.04000000000000004 0.112 0  0.08000000000000007 0.112 0  0.1200000000000001 0.112 0  0.1599999999999999 0.112 0  0.2 0.112 0  0.24 0.112 0  0.28 0.112 0  0.3200000000000001 0.112 0  0.3600000000000001 0.112 0  0.3999999999999999 0.112 0  0.4399999999999999 0.112 0  0.48 0.112 0  0.52 0.112 0  0.5600000000000001 0.112 0  0.6000000000000001 0.112 0  0.6399999999999999 0.112 0  0.6799999999999999 0.112 0  0.72 0.112 0  0.76 0.112 0  0.8 0.112 0  0.8400000000000001 0.112 0  0.8799999999999999 0.112 0  0.9199999999999999 0.112 0  0.96 0.112 0  1 0.112 0  -1 0.128 0  -0.96 0.128 0  -0.92 0.128 0  -0.88 0.128 0  -0.84 0.128 0  -0.8 0.128 0  -0.76 0.128 0  -0.72 0.128 0  -0.6799999999999999 0.128 0  -0.64 0.128 0  -0.6 0.128 0  -0.5600000000000001 0.128 0  -0.52 0.128 0  -0.48 0.128 0  -0.4399999999999999 0.128 0  -0.4 0.128 0  -0.36 0.128 0  -0.32 0.128 0  -0.28 0.128 0  -0.24 0.128 0  -0.2 0.128 0  -0.16 0.128 0  -0.12 0.128 0  -0.07999999999999996 0.128 0  -0.04000000000000004 0.128 0  0 0.128 0  0.04000000000000004 0.128 0  0.08000000000000007 0.128 0  0.1200000000000001 0.128 0  0.1599
[...]
<PointData  Scalars="f_100"> 
<DataArray  type="Float64"  Name="f_100"  format="ascii">6.0000000000000002e-05  5.4244071743048166e-05  5.2904960585766481e-05  5.2350971000287342e-05  5.1954169053278447e-05  5.1491523300981417e-05  5.0864052385012458e-05  5.0017024828283356e-05  4.8919779452864866e-05  4.7563414044231001e-05  4.5962243208615517e-05  4.4153855887489553e-05  4.2196002347733221e-05  4.0160256242875742e-05  3.8123414889453306e-05  3.6157931558890912e-05  3.4320977330800114e-05  3.2626163311467698e-05  3.0909737303230661e-05  2.4889731191647270e-05  1.8082009234189643e-05  1.4997127651522957e-05  1.2916293578350006e-05  1.1356583772338052e-05  1.0101186770594698e-05  9.0267285205955595e-06  8.0597382867037856e-06  7.1628624703561741e-06  6.3390618613181765e-06  5.6724361813640598e-06  5.4889378553961767e-06  7.1377680990084882e-06  9.5657410936885434e-06  9.1618680803448395e-06  7.8652451182781157e-06  6.4051864858983700e-06  5.0443333033891010e-06  3.8674652154598893e-06  2.8938319831419939e-06  2.1154361019060928e-06  1.5116712503283927e-06  1.0564200496037788e-06  7.2230067772604263e-07  4.8337756967742598e-07  3.1676278816621887e-07  2.0335318322980039e-07  1.2792478181532610e-07  7.8768258370823974e-08  4.6892031966812459e-08  2.4276569320730287e-08  0.0000000000000000e+00  6.0000000000000002e-05  5.4518239840639640e-05  5.3172271693178391e-05  5.2614933668962573e-05  5.2216467598210440e-05  5.1752266626245776e-05  5.1122688871816154e-05  5.0272636590499230e-05  4.9171202471523150e-05  4.7809330664381234e-05  4.6201288799667903e-05  4.4384742117780606e-05  4.2417643053972502e-05  4.0371876169467569e-05  3.8324623129605113e-05  3.6348749145729444e-05  3.4501827266838915e-05  3.2798004192554175e-05  3.1058713771324604e-05  2.5542788631076177e-05  1.8984392099349466e-05  1.5745262083568846e-05  1.3551395981165300e-05  1.1910000860641099e-05  1.0591649510205843e-05  9.4655352784264266e-06  8.4535207702645176e-06  7.5152471104317044e-06  6.6516748686218713e-06  5.9451215529276301e-06  5.7184790561980996e-06  7.2186934044654118e-06  9.6133860031162039e-06  9.2150301670378274e-06  7.9125922616057099e-06  6.4446672974142370e-06  5.0760466023647379e-06  3.8922262179354847e-06  2.9126832418079286e-06  2.1294481806327300e-06  1.5218461461217255e-06  1.0636414029944308e-06  7.2731197144484891e-07  4.8677938487161767e-07  3.1902273735588919e-07  2.0482320504432313e-07  1.2886153791773266e-07  7.9353621562550618e-08  4.7252092616413478e-08  2.4500129378535397e-08  0.0000000000000000e+00  6.0000000000000002e-05  5.4788360174477094e-05  5.3438760609305654e-05  5.2879537597297394e-05  5.2479866285847822e-05  5.2014251112017065e-05  5.1382604941367910e-05  5.0529531068501665e-05  4.9423896713307243e-05  4.8056498432348450e-05  4.6441558519693668e-05  4.4616819064111532e-05  4.2640435228556806e-05  4.0584603415525557e-05  3.8526891154828076e-05  3.6540578942675673e-05  3.4683658256442247e-05  3.2970938271113390e-05  3.1212871969131067e-05  2.6139513224160922e-05  1.9879705348435526e-05  1.6491827847763409e-05  1.4191879019038344e-05  1.2472178022757516e-05  1.1092635654223314e-05  9.9157656421212101e-06  8.8590628471415257e-06  7.8792860565221911e-06  6.9754093331595683e-06  6.2277852084310648e-06  5.9545597618796951e-06  7.3200659655869275e-06  9.6692050324768941e-06  9.2711123665139849e-06  7.9610349183868521e-06  6.4846408888538183e-06  5.1080391286511588e-06  3.9171751438368369e-06  2.9316717170043974e-06  2.1435627390140109e-06  1.5320972165374041e-06  1.0709184944284015e-06  7.3236324780581511e-07  4.9020927774383254e-07  3.2130198327282946e-07  2.0630620792663147e-07  1.2980684631348000e-07  7.9944507689771835e-08  4.7615585854077367e-08  2.4724591568321967e-08  0.0000000000000000e+00  6.0000000000000002e-05  5.5053636632317335e-05  5.3704386840162306e-05  5.3144776320472416e-05  5.2744368127538857e-05  5.2277482975678732e-05  5.1643808057322830e-05  5.0787716320777142e-05  4.9677870546849186e-05  4.8304925814806482e-05  4.6683060714415924e-05  4.4850094722203509e-05  4.2864386302562843e-05  4.0798444677450588e-05  3.8730224821304989e-05  3.6733425892980139e-05  3.4866473946234385e-05  3.3144957091967264e-05  3.1371883027063377e-05  2.6687657934978045e-05  2.0745132546701119e-05  1.7232725953116302e-05  1.4835978355583245e-05  1.3042219666672144e-05  1.1603736985285491e-05  1.0377318139570671e-05  9.2764648669663954e-06  8.2552146511915015e-06  7.3105974571630957e-06  6.5208674580809942e-06  6.1982596684974237e-06  7.4395227949185234e-06  9.7333280339283066e-06  9.3301611815170981e-06  8.0105906646198062e-06  6.5251127174795679e-06  5.1403122431127903e-06  3.9423118979855887e-06  2.9507967649868267e-06  2.1577789419943333e-06  1.5424236026751332e-06  1.0782505286105467e-06  7.3745381895174317e-07  4.9366668382377764e-07  3.2360008267198013e-07  2.0780185691360069e-07  1.3076046189312291e-07  8.0540740170461347e-08  4.7982378255060964e-08  2.4949805577731387e-08  0.0000000000000000e+00  6.0000000000000002e-05  5.5313510891057226e-05  5.3969126089089884e-05  5.3410647441968363e-05  5.3009977343907099e-05  5.2541968708037292e-05  5.1906305618067834e-05  5.1047200193863617e-05  4.9933132053737226e-05  4.8554620956652813e-05  4.6925803408198857e-05  4.5084576801465868e-05  4.3089503487323170e-05  4.1013406522459137e-05  3.8934629959508424e-05  3.6927295019192880e-05  3.5050278163330712e-05  3.3320055524057065e-05  3.1535416616885564e-05  2.7194083184442730e-05  2.1569659621486375e-05  1.7965029727851259e-05  1.5482191298043140e-05  1.3619356178108642e-05  1.2124622795213829e-05  1.0850144684748639e-05  9.7058662200024407e-06  8.6432967834171254e-06  7.6575875743298077e-06  6.8247976655732191e-06  6.4504837697385215e-06  7.5753666963173407e-06  9.8058533663518736e-06  9.3922114336241920e-06  8.0612724211758881e-06  6.5660869383456364e-06  5.1728671028428566e-06  3.9676365263033018e-06  2.9700579823097858e-06  2.1720962086843206e-06  1.5528246809970090e-06  1.0856369138016709e-06  7.4258316477233694e-07  4.9715117145077038e-07  3.2591669377746250e-07  2.0930989209363700e-07  1.3172219351673669e-07  8.1142180720139409e-08  4.8352365219498360e-08  2.5175670195858360e-08  0.0000000000000000e+00  6.0000000000000002e-05  5.5567619104417138e-05  5.4232968148458949e-05  5.3677152417344148e-05  5.3276699315432422e-05  5.2807715080908940e-05  5.2170104989899407e-05  5.1307990370654404e-05  5.0189689086757378e-05  4.8805591744446084e-05  4.7169794367233561e-05  4.5320272782026181e-05  4.3315793819735329e-05  4.1229495417826603e-05  3.9140112384812504e-05  3.7122191413429142e-05  3.5235074871826882e-05  3.3496230799328243e-05  3.1703149448245952e-05  2.7664777504999861e-05  2.2349133440616584e-05  1.8686408859924809e-05  1.6129193828179185e-05  1.4202907651014155e-05  1.2655019523174627e-05  1.1334239419878378e-05  1.0147440267371198e-05  9.0438244188795310e-06  8.0167488805411373e-06  7.1400098904195722e-06  6.7120142443879858e-06  7.7263871681297149e-06  9.8868481906999114e-06  9.4572865189401088e-06  8.1130886859791860e-06  6.6075664571091307e-06  5.2057046445957863e-06  3.9931491756922319e-06  2.9894551591426399e-06  2.1865141662935559e-06  1.5633000213469700e-06  1.0930772255931706e-06  7.4775090300226492e-07  5.0066241803520181e-07  3.2825155809275077e-07  2.1083011511383502e-07  1.3269189428481681e-07  8.1748722437708839e-08  4.8725465838853164e-08  2.5402123924217482e-08  0.0000000000000000e+00  6.0000000000000002e-05  5.5815755960502957e-05  5.4495915416210010e-05  5.3944296378816228e-05  5.3544540541501371e-05  5.3074729153331152e-05  5.2435213534379891e-05  5.1570094410224372e-05  5.0447549317890166e-05  4.9057845858652281e-05  4.7415041151537628e-05  4.5557189961618915e-05  4.3543264199462099e-05  4.1446717754835170e-05  3.9346677906101289e-05  3.7318120229309795e-05  3.5420868138894427e-05  3.3673481744411480e-05  3.1874771181375771e-05  2.8104923876241708e-05  2.3083301782015392e-05  1.9394959212723015e-05  1.6775815677257520e-05  1.4792270928938237e-05  1.3194703694628749e-05  1.1829635451142731e-05  1.0601393720403369e-05  9.4571190791530520e-06  8.3884755190755961e-06  7.4669525483621617e-06  6.9835481717010075e-06  7.8917315747415051e-06  9.9763497926140708e-06  9.5253986035622948e-06  8.1660437274070791e-06  6.6495529735242035e-06  5.2388255711200172e-06  4.0188500610121106e-06  3.0089882408765542e-06  2.2010326122725387e-06  1.5738493524737832e-06  1.1005711771746756e-06  7.5295676469299132e-07  5.0420019059688234e-07  3.3060448549597715e-07  2.1236237812968993e-07  1.3366945357440256e-07  8.2360284148184009e-08  4.9101618699524002e-08  2.5629137274384264e-08  0.0000000000000000e+00  6.0000000000000002e-05  5.6057844905081068e-05  5.4757981854342118e-05  5.4212087988587467e-05  5.3813508605464712e-05  5.3343018276336384e-05  5.2701638630799762e-05  5.1833519780641546e-05  5.0706720277861699e-05  4.9311390816677946e-05  4.7661551157755262e-05  4.5795335494142610e-05  4.3771921419480359e-05  4.1665079868390657e-05  3.9554332332757248e-05  3.7515086675305289e-05  3.5607662108393360e-05  3.3851808174242391e-05  3.2049988319193443e-05  2.8518985390552552e-05  2.3774048565989232e-05  2.0089178988409604e-05  1.7421038121156495e-05  1.5386918416515339e-05  1.3743501922476840e-05  1.2336405844293883e-05  1.1067968443161847e-05  9.8835343879153104e-06  8.7731902923327459e-06  7.8060948096020141e-06  7.2657255224779669e-06  8.0708123792570864e-06  1.0074367399301759e-05  9.5965487740210416e-06  8.2201377482923234e-06  6.6920470183553809e-06  5.2722303402272874e-06  4.0447394380017480e-06  3.0286572965811963e-06  2.2156514832099254e-06  1.5844725337187877e-06  1.1081185949313508e-06  7.5820057409255885e-07  5.0776432980952360e-07  3.3297534202687598e-07  2.1390657475504459e-07  1.3465479052002414e-07  8.2976805773664035e-08  4.9480778450737969e-08  2.5856706462012923e-08  0.0000000000000000e+00  6.0000000000000002e-05  5.6293913521500834e-05  5.5019192251897869e-05  5.4480539311886443e-05  5.4083612143746442e-05  5.3612590096257449e-05  5.2969387694517393e-05  5.2098273885971799e-05  5.0967209388731799e-05  4.9566234008319178e-05  4.7909331654391557e-05  4.6034716421372666e-05  4.4001772191174170e-05  4.1884588053097286e-05  3.9763081480340533e-05  3.7713096009257100e-05  3.5795460980380569e-05  3.4031210420630816e-05  3.2228526543529403e-05  2.8910795419324884e-05  2.4424349814927139e-05  2.0767979271719741e-05  1.8064000263211228e-05  1.5986402805084849e-05  1.4301294668750422e-05  1.2854666953799795e-05  1.1547444612603175e-05  1.0323459236697872e-05  9.1713481915935107e-06  8.1579312854085546e-06  7.5591503574976003e-06  8.2632402739323069e-06  1.0180884143351863e-05  9.6707271564786264e-06  8.2753670282222418e-06  6.7350479858933815e-06  5.3059191564372781e-06  4.0708175811898203e-06  3.0484624931228680e-06  2.2303708292892501e-06  1.5951695317684587e-06  1.1157193984157731e-06  7.6348223214090351e-07  5.1135473691934787e-07  3.3536403987896767e-07  2.1546263264995698e-07  1.3564784867715959e-07  8.3598244545444805e-08  4.9862912995779026e-08  2.6084848256488408e-08  0.0000000000000000e+00  6.0000000000000002e-05  5.6524073221795966e-05  5.5279581690266007e-05  5.4749665702919656e-05  5.4354860817452891e-05  5.3883452556557684e-05  5.3238468191818079e-05  5.2364364088473890e-05  5.1229023990741041e-05  4.9822382724967595e-05  4.8158389810825649e-05  4.6275339699052301e-05  4.4232823164953463e-05  4.2105248576436396e-05  3.9972931175210699e-05  3.7912153533887757e-05  3.5984268995259667e-05  3.4211688972382802e-05  3.2410131872095834e-05  2.9283644348993833e-05  2.5037663738194450e-05  2.1430687344414149e-05  1.8704007902328632e-05  1.6590364633652684e-05  1.4868022002130328e-05  1.3384583058698427e-05  1.2040144674007601e-05  1.0777321343367555e-05  9.5834398732726833e-06  8.5229858760123315e-06  7.8644072121284084e-06  8.4687759352977945e-06  1.0295858953334462e-05  9.7479130167047544e-06  8.3317240504437114e-06  6.7785541638098283e-06  5.3398919650424235e-06  4.0970847660012986e-06  3.0684040739645859e-06  2.2451907933215135e-06  1.6059404015680343e-06  1.1233735839102268e-06  7.6880170293050887e-07  5.1497136301955019e-07  3.3777052919833091e-07  2.1703050744969166e-07  1.3664859165343287e-07  8.4224571904150980e-08  5.0248001191614971e-08  2.6313595786577870e-08  0.0000000000000000e+00  6.0000000000000002e-05  5.6748502540672961e-05  5.5539195135839309e-05  5.5019485698610057e-05  5.4627265285255633e-05  5.4155613898196918e-05  5.3508887651826503e-05  5.2631797726808389e-05  5.1492171364423602e-05  5.0079844183677470e-05  4.8408732721208456e-05  4.6517212218365997e-05  4.4465080947203546e-05  4.2327067689577254e-05  4.0183887258294652e-05  3.8112264593141854e-05  3.6174090421604892e-05  3.4393244206864889e-05  3.2594570936958647e-05  2.9640359028801986e-05  2.5617581778380905e-05  2.2077032528416672e-05  1.9340542325342198e-05  1.7198541021388731e-05  1.5443690396599517e-05  1.3926371752733743e-05  1.2546437792673683e-05  1.1245591087972886e-05  1.0009995164834702e-05  8.9018152634093702e-06  8.1820740329770743e-06  8.6872951957561025e-06  1.0419228237243695e-05  9.8280748510468082e-06  8.3891976185405981e-06  6.8225627617260254e-06  5.3741484484454744e-06  4.1235412544002124e-06  3.0884823418404849e-06  2.2601115935445094e-06  1.6167852706535616e-06  1.1310812109355471e-06  7.7415900259886412e-07  5.1861420025557244e-07  3.4019479136220399e-07  2.1861017779168946e-07  1.3765699953169753e-07  8.4855770962573312e-08  5.0636030963194226e-08  2.6542995136543852e-08  0.0000000000000000e+00  6.0000000000000002e-05  5.6967433439111959e-05  5.5798087105923674e-05  5.5290020916244859e-05  5.4900837176583617e-05  5.4429082658556700e-05  5.3780653675918099e-05  5.2900582130940706e-05  5.1756658748816567e-05  5.0338625547003538e-05  4.8660367424155220e-05  4.6760340823621386e-05  4.4698552114226433e-05  4.2550051636252570e-05  4.0395955588165795e-05  3.8313434569225607e-05  3.6364929546914179e-05  3.4575876195871256e-05  3.2781630621564811e-05  2.9983373424899896e-05  2.6167635981369499e-05  2.2707116682630620e-05  1.9973267705478496e-05  1.7810774659172194e-05  1.6028380046389744e-05  1.4480309786932315e-05  1.3066744640604584e-05  1.1728785566462805e-05  1.0451586652617315e-05  9.2950123116332344e-06  8.5127326286578092e-06  8.9187638986242440e-06  1.0550907282538255e-05  9.9111704769555812e-06  8.4477729671080828e-06  6.8670699395783043e-06  5.4086880246307797e-06  4.1501872835205469e-06  3.1086976446384751e-06  2.2751335095231326e-06  1.6277043262920116e-06  1.1388423911777538e-06  7.7955419021485369e-07  5.2228327461255936e-07  3.4263683346954668e-07  2.2020164124129875e-07  1.3867306594099588e-07  8.5491834428637558e-08  5.1026997755964240e-08  2.6773102595459169e-08  0.0000000000000000e+00  6.0000000000000002e-05  5.7181140120732427e-05  5.6056321369650529e-05  5.5561295952096487e-05  5.5175589064371906e-05  5.4703867668957897e-05  5.4053773945000656e-05  5.3170724634300658e-05  5.2022493356449888e-05  5.0598733939358696e-05  4.8913300918981882e-05  4.7004732326818584e-05  4.4933243223716644e-05  4.2774206660052658e-05  4.0609142043568019e-05  3.8515668880234566e-05  3.6556790670718351e-05  3.4759584571306939e-05  3.2971117240862675e-05  3.0314790288535301e-05  2.6691199480088114e-05  2.3321375093431846e-05  2.0602036462740376e-05  1.8427022561846107e-05  1.6622252402731587e-05  1.5046739195598545e-05  1.3601542428916356e-05  1.2227472830532206e-05  1.0908833383348743e-05  9.7032095133802862e-06  8.8569773247081970e-06  9.1632197579873187e-06  1.0690791334477542e-05  9.9971471301963279e-06  8.5074318698688817e-06  6.9120708366251086e-06  5.4435098476387343e-06  4.1770230568288783e-06  3.1290503639415176e-06  2.2902568706027117e-06  1.6386978049277420e-06  1.1466572793981477e-06  7.8498736029964542e-07  5.2597863999899006e-07  3.4509668382393068e-07  2.2180491095300811e-07  1.3969679565743710e-07  8.6132762904530303e-08  5.1420903264241768e-08  2.7003982445908123e-08  0.0000000000000000e+00  6.0000000000000002e-05  5.7389929944904965e-05  5.6313970657584109e-05  5.5833338278794644e-05  5.5451534436786480e-05  5.4979978050811113e-05  5.4328256224976836e-05  5.3442232583663416e-05  5.2289682385682147e-05  5.0860176460508970e-05  4.9167540179102023e-05  4.7250393519665106e-05  4.5169160824216887e-05  4.2999539010428135e-05  4.0823452525492507e-05  3.8718972978276308e-05  3.6749678099605489e-05  3.4944368438547354e-05  3.3162855406367794e-05  3.0636434337558130e-05  2.7191441944887602e-05  2.3920533454434375e-05  2.1226892371482345e-05  1.9047364319520978e-05  1.7225557763540864e-05  1.5626073607647784e-05  1.4151370134386701e-05  1.2742276295458939e-05  1.1382404697894747e-05  1.0127082554110711e-05  9.2154223256320266e-06  9.4207592989637135e-06  1.0838756338815933e-05  1.0085941574700880e-05  8.5681527480288454e-06  6.9575596017479424e-06  5.4786128099208050e-06  4.2040487374382472e-06  3.1495409057737067e-06  2.3054820464642411e-06  1.6497659835227199e-06  1.1545260659700231e-06  7.9045863668694888e-07  5.2970037339178055e-07  3.4757438822862183e-07  2.2342001293335343e-07  1.4072820263835305e-07  8.6778563493214648e-08  5.1817754384529111e-08  2.7235705197687661e-08  0.0000000000000000e+00  6.0000000000000002e-05  5.7594136088326966e-05  5.6571116362602270e-05  5.6106178139775434e-05  5.5728687667485319e-05  5.5257423210445377e-05  5.4604108370648028e-05  5.3715113347137079e-05  5.2558233030848253e-05  5.1122960196714670e-05  4.9423092163092273e-05  4.7497331183496198e-05  4.5406311462919799e-05  4.3226054947638395e-05  4.1038892958894872e-05  3.8923352348010069e-05  3.6943596143820135e-05  3.5130226327389905e-05  3.3356686683726622e-05  3.0949897776105009e-05  2.7671317026365500e-05  2.4505565343123505e-05  2.1848071509486820e-05  1.9672009727179962e-05  1.7838642817876586e-05  1.6218804683695978e-05  1.4716833888392243e-05  1.3273879304366173e-05  1.1873024207313367e-05  1.0567354028717052e-05  9.5887081562922108e-06  9.6915284941070037e-06  1.0994659350038178e-05  1.0177480230095996e-05  8.6299107811288043e-06  7.0035294255408291e-06  5.5139955464597430e-06  4.2312644432552647e-06  3.1701696931761001e-06  2.3208094394098017e-06  1.6609091724510648e-06  1.1624489707486408e-06  7.9596816748019528e-07  5.3344857085016427e-07  3.5007000694604483e-07  2.2504698379574519e-07  1.4176730841051736e-07  8.7429248655996704e-08  5.2217562352200744e-08  2.7468346188211471e-08  0.0000000000000000e+00  6.0000000000000002e-05  5.7794111663523984e-05  5.6827848221151673e-05  5.6379848439560677e-05  5.6007063984091016e-05  5.5536212832665295e-05  5.4881338328278295e-05  5.3989374320575703e-05  5.2828152490604104e-05  5.1387092229937860e-05  4.9679963823844991e-05  4.7745552097478470e-05  4.5644701692116675e-05  4.3453760746840548e-05  4.1255469294123592e-05  3.9128812505537517e-05  3.7138549115172850e-05  3.5317156172300089e-05  3.3552468123036774e-05  3.1256579092973525e-05  2.8133568006967812e-05  2.5077653133116585e-05  2.2466001360603732e-05  2.0301305760070174e-05  1.8461958088884496e-05  1.6825508640864130e-05  1.5298612507060704e-05  1.3823029840452744e-05  1.2381473915939949e-05  1.1024797327568114e-05  9.9775074623393137e-06  9.9757160990128886e-06  1.1158338615234816e-05  1.0271679321253491e-05  8.6926780221951317e-06  7.0499725745539774e-06  5.5496564405458365e-06  4.2586702436939827e-06  3.1909371603019286e-06  2.3362394780717031e-06  1.6721277096684370e-06  1.1704262380331560e-06  8.0151612090734275e-07  5.3722334424004956e-07  3.5258361220027075e-07  2.2668586891715128e-07  1.4281414074745666e-07  8.8084835274957411e-08  5.2620342027574986e-08  2.7701984484630431e-08  0.0000000000000000e+00  6.0000000000000002e-05  5.7990225050248008e-05  5.7084263968680618e-05  5.6654384628958508e-05  5.6286679434645335e-05  5.5816356873090164e-05  5.5159954137003427e-05  5.4265022932682943e-05  5.3099447974787095e-05  5.1652579645462833e-05  4.9938162116153471e-05  4.7995063045408999e-05  4.5884338074540703e-05  4.368266270147840