<?xml version="1.0"?>
<VTKFile type="UnstructuredGrid"  version="0.1"  >
<UnstructuredGrid>
<Piece  NumberOfPoints="2601" NumberOfCells="5000">
<Points>
<DataArray  type="Float64"  NumberOfComponents="3"  format="ascii">-1 0 0  -0.96 0 0  -0.92 0 0  -0.88 0 0  -0.84 0 0  -0.8 0 0  -0.76 0 0  -0.72 0 0  -0.6799999999999999 0 0  -0.64 0 0  -0.6 0 0  -0.5600000000000001 0 0  -0.52 0 0  -0.48 0 0  -0.4399999999999999 0 0  -0.4 0 0  -0.36 0 0  -0.32 0 0  -0.28 0 0  -0.24 0 0  -0.2 0 0  -0.16 0 0  -0.12 0 0  -0.07999999999999996 0 0  -0.04000000000000004 0 0  0 0 0  0.04000000000000004 0 0  0.08000000000000007 0 0  0.1200000000000001 0 0  0.1599999999999999 0 0  0.2 0 0  0.24 0 0  0.28 0 0  0.3200000000000001 0 0  0.3600000000000001 0 0  0.3999999999999999 0 0  0.4399999999999999 0 0  0.48 0 0  0.52 0 0  0.5600000000000001 0 0  0.6000000000000001 0 0  0.6399999999999999 0 0  0.6799999999999999 0 0  0.72 0 0  0.76 0 0  0.8 0 0  0.8400000000000001 0 0  0.8799999999999999 0 0  0.9199999999999999 0 0  0.96 0 0  1 0 0  -1 0.016 0  -0.96 0.016 0  -0.92 0.016 0  -0.88 0.016 0  -0.84 0.016 0  -0.8 0.016 0  -0.76 0.016 0  -0.72 0.016 0  -0.6799999999999999 0.016 0  -0.64 0.016 0  -0.6 0.016 0  -0.5600000000000001 0.016 0  -0.52 0.016 0  -0.48 0.016 0  -0.4399999999999999 0.016 0  -0.4 0.016 0  -0.36 0.016 0  -0.32 0.016 0  -0.28 0.016 0  -0.24 0.016 0  -0.2 0.016 0  -0.16 0.016 0  -0.12 0.016 0  -0.07999999999999996 0.016 0  -0.04000000000000004 0.016 0  0 0.016 0  0.04000000000000004 0.016 0  0.08000000000000007 0.016 0  0.1200000000000001 0.016 0  0.1599999999999999 0.016 0  0.2 0.016 0  0.24 0.016 0  0.28 0.016 0  0.3200000000000001 0.016 0  0.3600000000000001 0.016 0  0.3999999999999999 0.016 0  0.4399999999999999 0.016 0  0.48 0.016 0  0.52 0.016 0  0.5600000000000001 0.016 0  0.6000000000000001 0.016 0  0.6399999999999999 0.016 0  0.6799999999999999 0.016 0  0.72 0.016 0  0.76 0.016 0  0.8 0.016 0  0.8400000000000001 0.016 0  0.8799999999999999 0.016 0  0.9199999999999999 0.016 0  0.96 0.016 0  1 0.016 0  -1 0.032 0  -0.96 0.032 0  -0.92 0.032 0  -0.88 0.032 0  -0.84 0.032 0  -0.8 0.032 0  -0.76 0.032 0  -0.72 0.032 0  -0.6799999999999999 0.032 0  -0.64 0.032 0  -0.6 0.032 0  -0.5600000000000001 0.032 0  -0.52 0.032 0  -0.48 0.032 0  -0.4399999999999999 0.032 0  -0.4 0.032 0  -0.36 0.032 0  -0.32 0.032 0  -0.28 0.032 0  -0.24 0.032 0  -0.2 0.032 0  -0.16 0.032 0  -0.12 0.032 0  -0.07999999999999996 0.032 0  -0.04000000000000004 0.032 0  0 0.032 0  0.04000000000000004 0.032 0  0.08000000000000007 0.032 0  0.1200000000000001 0.032 0  0.1599999999999999 0.032 0  0.2 0.032 0  0.24 0.032 0  0.28 0.032 0  0.3200000000000001 0.032 0  0.3600000000000001 0.032 0  0.3999999999999999 0.032 0  0.4399999999999999 0.032 0  0.48 0.032 0  0.52 0.032 0  0.5600000000000001 0.032 0  0.6000000000000001 0.032 0  0.6399999999999999 0.032 0  0.6799999999999999 0.032 0  0.72 0.032 0  0.76 0.032 0  0.8 0.032 0  0.8400000000000001 0.032 0  0.8799999999999999 0.032 0  0.9199999999999999 0.032 0  0.96 0.032 0  1 0.032 0  -1 0.04800000000000001 0  -0.96 0.04800000000000001 0  -0.92 0.04800000000000001 0  -0.88 0.04800000000000001 0  -0.84 0.04800000000000001 0  -0.8 0.04800000000000001 0  -0.76 0.04800000000000001 0  -0.72 0.04800000000000001 0  -0.6799999999999999 0.04800000000000001 0  -0.64 0.04800000000000001 0  -0.6 0.04800000000000001 0  -0.5600000000000001 0.04800000000000001 0  -0.52 0.04800000000000001 0  -0.48 0.04800000000000001 0  -0.4399999999999999 0.04800000000000001 0  -0.4 0.04800000000000001 0  -0.36 0.04800000000000001 0  -0.32 0.04800000000000001 0  -0.28 0.04800000000000001 0  -0.24 0.04800000000000001 0  -0.2 0.04800000000000001 0  -0.16 0.04800000000000001 0  -0.12 0.04800000000000001 0  -0.07999999999999996 0.04800000000000001 0  -0.04000000000000004 0.04800000000000001 0  0 0.04800000000000001 0  0.04000000000000004 0.04800000000000001 0  0.08000000000000007 0.04800000000000001 0  0.1200000000000001 0.04800000000000001 0  0.1599999999999999 0.04800000000000001 0  0.2 0.04800000000000001 0  0.24 0.04800000000000001 0  0.28 0.04800000000000001 0  0.3200000000000001 0.04800000000000001 0  0.3600000000000001 0.04800000000000001 0  0.3999999999999999 0.04800000000000001 0  0.4399999999999999 0.04800000000000001 0  0.48 0.04800000000000001 0  0.52 0.04800000000000001 0  0.5600000000000001 0.04800000000000001 0  0.6000000000000001 0.04800000000000001 0  0.6399999999999999 0.04800000000000001 0  0.6799999999999999 0.04800000000000001 0  0.72 0.04800000000000001 0  0.76 0.04800000000000001 0  0.8 0.04800000000000001 0  0.8400000000000001 0.04800000000000001 0  0.8799999999999999 0.04800000000000001 0  0.9199999999999999 0.04800000000000001 0  0.96 0.04800000000000001 0  1 0.04800000000000001 0  -1 0.064 0  -0.96 0.064 0  -0.92 0.064 0  -0.88 0.064 0  -0.84 0.064 0  -0.8 0.064 0  -0.76 0.064 0  -0.72 0.064 0  -0.6799999999999999 0.064 0  -0.64 0.064 0  -0.6 0.064 0  -0.5600000000000001 0.064 0  -0.52 0.064 0  -0.48 0.064 0  -0.4399999999999999 0.064 0  -0.4 0.064 0  -0.36 0.064 0  -0.32 0.064 0  -0.28 0.064 0  -0.24 0.064 0  -0.2 0.064 0  -0.16 0.064 0  -0.12 0.064 0  -0.07999999999999996 0.064 0  -0.04000000000000004 0.064 0  0 0.064 0  0.04000000000000004 0.064 0  0.08000000000000007 0.064 0  0.1200000000000001 0.064 0  0.1599999999999999 0.064 0  0.2 0.064 0  0.24 0.064 0  0.28 0.064 0  0.3200000000000001 0.064 0  0.3600000000000001 0.064 0  0.3999999999999999 0.064 0  0.4399999999999999 0.064 0  0.48 0.064 0  0.52 0.064 0  0.5600000000000001 0.064 0  0.6000000000000001 0.064 0  0.6399999999999999 0.064 0  0.6799999999999999 0.064 0  0.72 0.064 0  0.76 0.064 0  0.8 0.064 0  0.8400000000000001 0.064 0  0.8799999999999999 0.064 0  0.9199999999999999 0.064 0  0.96 0.064 0  1 0.064 0  -1 0.08 0  -0.96 0.08 0  -0.92 0.08 0  -0.88 0.08 0  -0.84 0.08 0  -0.8 0.08 0  -0.76 0.08 0  -0.72 0.08 0  -0.6799999999999999 0.08 0  -0.64 0.08 0  -0.6 0.08 0  -0.5600000000000001 0.08 0  -0.52 0.08 0  -0.48 0.08 0  -0.4399999999999999 0.08 0  -0.4 0.08 0  -0.36 0.08 0  -0.32 0.08 0  -0.28 0.08 0  -0.24 0.08 0  -0.2 0.08 0  -0.16 0.08 0  -0.12 0.08 0  -0.07999999999999996 0.08 0  -0.04000000000000004 0.08 0  0 0.08 0  0.04000000000000004 0.08 0  0.08000000000000007 0.08 0  0.1200000000000001 0.08 0  0.1599999999999999 0.08 0  0.2 0.08 0  0.24 0.08 0  0.28 0.08 0  0.3200000000000001 0.08 0  0.3600000000000001 0.08 0  0.3999999999999999 0.08 0  0.4399999999999999 0.08 0  0.48 0.08 0  0.52 0.08 0  0.5600000000000001 0.08 0  0.6000000000000001 0.08 0  0.6399999999999999 0.08 0  0.6799999999999999 0.08 0  0.72 0.08 0  0.76 0.08 0  0.8 0.08 0  0.8400000000000001 0.08 0  0.8799999999999999 0.08 0  0.9199999999999999 0.08 0  0.96 0.08 0  1 0.08 0  -1 0.09600000000000002 0  -0.96 0.09600000000000002 0  -0.92 0.09600000000000002 0  -0.88 0.09600000000000002 0  -0.84 0.09600000000000002 0  -0.8 0.09600000000000002 0  -0.76 0.09600000000000002 0  -0.72 0.09600000000000002 0  -0.6799999999999999 0.09600000000000002 0  -0.64 0.09600000000000002 0  -0.6 0.09600000000000002 0  -0.5600000000000001 0.09600000000000002 0  -0.52 0.09600000000000002 0  -0.48 0.09600000000000002 0  -0.4399999999999999 0.09600000000000002 0  -0.4 0.09600000000000002 0  -0.36 0.09600000000000002 0  -0.32 0.09600000000000002 0  -0.28 0.09600000000000002 0  -0.24 0.09600000000000002 0  -0.2 0.09600000000000002 0  -0.16 0.09600000000000002 0  -0.12 0.09600000000000002 0  -0.07999999999999996 0.09600000000000002 0  -0.04000000000000004 0.09600000000000002 0  0 0.09600000000000002 0  0.04000000000000004 0.09600000000000002 0  0.08000000000000007 0.09600000000000002 0  0.1200000000000001 0.09600000000000002 0  0.1599999999999999 0.09600000000000002 0  0.2 0.09600000000000002 0  0.24 0.09600000000000002 0  0.28 0.09600000000000002 0  0.3200000000000001 0.09600000000000002 0  0.3600000000000001 0.09600000000000002 0  0.3999999999999999 0.09600000000000002 0  0.4399999999999999 0.09600000000000002 0  0.48 0.09600000000000002 0  0.52 0.09600000000000002 0  0.5600000000000001 0.09600000000000002 0  0.6000000000000001 0.09600000000000002 0  0.6399999999999999 0.09600000000000002 0  0.6799999999999999 0.09600000000000002 0  0.72 0.09600000000000002 0  0.76 0.09600000000000002 0  0.8 0.09600000000000002 0  0.8400000000000001 0.09600000000000002 0  0.8799999999999999 0.09600000000000002 0  0.9199999999999999 0.09600000000000002 0  0.96 0.09600000000000002 0  1 0.09600000000000002 0  -1 0.112 0  -0.96 0.112 0  -0.92 0.112 0  -0.88 0.112 0  -0.84 0.112 0  -0.8 0.112 0  -0.76 0.112 0  -0.72 0.112 0  -0.6799999999999999 0.112 0  -0.64 0.112 0  -0.6 0.112 0  -0.5600000000000001 0.112 0  -0.52 0.112 0  -0.48 0.112 0  -0.4399999999999999 0.112 0  -0.4 0.112 0  -0.36 0.112 0  -0.32 0.112 0  -0.28 0.112 0  -0.24 0.112 0  -0.2 0.112 0  -0.16 0.112 0  -0.12 0.112 0  -0.07999999999999996 0.112 0  -0.04000000000000004 0.112 0  0 0.112 0  0.04000000000000004 0.112 0  0.08000000000000007 0.112 0  0.1200000000000001 0.112 0  0.1599999999999999 0.112 0  0.2 0.112 0  0.24 0.112 0  0.28 0.112 0  0.3200000000000001 0.112 0  0.3600000000000001 0.112 0  0.3999999999999999 0.112 0  0.4399999999999999 0.112 0  0.48 0.112 0  0.52 0.112 0  0.5600000000000001 0.112 0  0.6000000000000001 0.112 0  0.6399999999999999 0.112 0  0.6799999999999999 0.112 0  0.72 0.112 0  0.76 0.112 0  0.8 0.112 0  0.8400000000000001 0.112 0  0.8799999999999999 0.112 0  0.9199999999999999 0.112 0  0.96 0.112 0  1 0.112 0  -1 0.128 0  -0.96 0.128 0  -0.92 0.128 0  -0.88 0.128 0  -0.84 0.128 0  -0.8 0.128 0  -0.76 0.128 0  -0.72 0.128 0  -0.6799999999999999 0.128 0  -0.64 0.128 0  -0.6 0.128 0  -0.5600000000000001 0.128 0  -0.52 0.128 0  -0.48 0.128 0  -0.4399999999999999 0.128 0  -0.4 0.128 0  -0.36 0.128 0  -0.32 0.128 0  -0.28 0.128 0  -0.24 0.128 0  -0.2 0.128 0  -0.16 0.128 0  -0.12 0.128 0  -0.07999999999999996 0.128 0  -0.04000000000000004 0.128 0  0 0.128 0  0.04000000000000004 0.128 0  0.08000000000000007 0.128 0  0.1200000000000001 0.128 0  0.1599
[...]
<PointData  Scalars="f_100"> 
<DataArray  type="Float64"  Name="f_100"  format="ascii">6.0000000000000002e-05  4.8014561501157593e-05  3.9566391059506934e-05  3.3449068033067784e-05  2.9802387208938517e-05  2.7947318989926381e-05  2.7111075326717701e-05  2.6767586560588169e-05  2.6636451426669873e-05  2.6589246827713056e-05  2.6573052377078550e-05  2.6567701068949243e-05  2.6565891039364838e-05  2.6564623004298773e-05  2.6559806556179942e-05  2.6533016352050422e-05  2.6396908549871905e-05  2.5812185742702353e-05  2.3872878626947834e-05  1.6836853408187948e-05  8.7692386028894184e-06  4.3417928081048862e-06  1.9032966491130182e-06  7.5139482035730451e-07  2.7269306188416314e-07  9.2523896959396747e-08  2.9735280947579442e-08  9.1427262834260649e-09  2.7104227502800923e-09  7.7976639861271159e-10  2.2136214656511727e-10  8.9772302276057068e-11  5.9888279380584114e-11  2.4341840237175525e-11  8.2133110920526281e-12  2.5135102121119113e-12  7.2884932821766683e-13  2.0450909336205435e-13  5.6127103250315720e-14  1.5155957435807429e-14  4.0406664524978090e-15  1.0659266365691559e-15  2.7863716869926441e-16  7.2250220982810901e-17  1.8598099684973402e-17  4.7555219946005313e-18  1.2085152917429280e-18  3.0536092602099303e-19  7.6687451680009952e-20  1.8612633578935283e-20  0.0000000000000000e+00  6.0000000000000002e-05  4.8293820089165976e-05  3.9800081024357300e-05  3.3639594681135188e-05  2.9963824011349372e-05  2.8092823252978969e-05  2.7249049090575971e-05  2.6902366295508401e-05  2.6769983713478358e-05  2.6722322505415351e-05  2.6705969436688944e-05  2.6700565391320877e-05  2.6698738762096518e-05  2.6697467732453790e-05  2.6692663528770812e-05  2.6665947254448511e-05  2.6530168796399670e-05  2.5946520065768450e-05  2.3995211027241464e-05  1.7349822560746729e-05  9.3552190117017908e-06  4.6661851244108543e-06  2.0541818267293721e-06  8.1334001081351055e-07  2.9578423523513611e-07  1.0050817757216535e-07  3.2336798146341646e-08  9.9508931547768530e-09  2.9519084750753180e-09  8.4963622786720840e-10  2.4096867953432948e-10  9.2144132630263429e-11  6.0471168292791979e-11  2.4602085201795489e-11  8.2999087913795005e-12  2.5396934427805054e-12  7.3639384288323150e-13  2.0662018348322669e-13  5.6705983540089728e-14  1.5312286619159852e-14  4.0823682975363484e-15  1.0769361267361783e-15  2.8151754363039216e-16  7.2997737562976803e-17  1.8790678352750119e-17  4.8048024972746107e-18  1.2210479622117511e-18  3.0852981671926388e-19  7.7484565116884887e-20  1.8813949376793290e-20  0.0000000000000000e+00  6.0000000000000002e-05  4.8568189705578611e-05  4.0032317074598991e-05  3.3830099374479829e-05  3.0125498636688282e-05  2.8238520610940733e-05  2.7387141507023541e-05  2.7037217561858251e-05  2.6903564589446121e-05  2.6855437060370794e-05  2.6838921624384759e-05  2.6833463492653382e-05  2.6831619829236044e-05  2.6830345817915705e-05  2.6825554618146627e-05  2.6798915495886924e-05  2.6663476645842416e-05  2.6080945380660262e-05  2.4120375964330797e-05  1.7811525282293278e-05  9.9341270663429281e-06  4.9894722372007487e-06  2.2073843573035221e-06  8.7724763626046469e-07  3.1993378936986743e-07  1.0895750144028151e-07  3.5118388509618764e-08  1.0822906936726543e-08  3.2145957976829029e-09  9.2619687992824945e-10  2.6257254447260197e-10  9.5583096289338290e-11  6.1237645723624028e-11  2.4902868461290821e-11  8.3947404520149466e-12  2.5676150009585487e-12  7.4433296709920429e-13  2.0882682753583926e-13  5.7309051994681668e-14  1.5474894408777547e-14  4.1257183339911564e-15  1.0883794376544852e-15  2.8451185988221131e-16  7.3775042230823926e-17  1.8990999818299492e-17  4.8560831806608213e-18  1.2340941403574544e-18  3.1182974979618212e-19  7.8314930627329347e-20  1.9023364565398091e-20  0.0000000000000000e+00  6.0000000000000002e-05  4.8836851583728784e-05  4.0263066311205534e-05  3.4020559795965316e-05  3.0287391403543362e-05  2.8384397961106582e-05  2.7525345730168281e-05  2.7172137528971186e-05  2.7037193297359204e-05  2.6988590665264824e-05  2.6971909490011067e-05  2.6966396063793970e-05  2.6964534976023074e-05  2.6963257979864307e-05  2.6958480390885585e-05  2.6931921049092511e-05  2.6796830670898839e-05  2.6215453361086799e-05  2.4248124351420920e-05  1.8229017252259081e-05  1.0488099627641435e-05  5.3082424365770552e-06  2.3613318541395583e-06  9.4233814286444619e-07  3.4479301575469506e-07  1.1773151352588872e-07  3.8028346256347658e-08  1.1741037473856250e-08  3.4927477683683157e-09  1.0076788663239627e-09  2.8566723704853258e-10  9.9902253149276116e-11  6.2190645041441307e-11  2.5244572464837600e-11  8.4977346150347030e-12  2.5972117556052761e-12  7.5264139901862433e-13  2.1112073610764236e-13  5.7933821984580930e-14  1.5643069454946964e-14  4.1705189336695427e-15  1.1002027523625042e-15  2.8760567931467940e-16  7.4578307257915751e-17  1.9198059364450804e-17  4.9091025966859548e-18  1.2475863150269330e-18  3.1524341331977241e-19  7.9174130934951842e-20  1.9239716030798507e-20  0.0000000000000000e+00  6.0000000000000002e-05  4.9099237837201328e-05  4.0492312672830686e-05  3.4210962065923738e-05  3.0449489492269867e-05  2.8530447532650027e-05  2.7663658963601502e-05  2.7307126609772479e-05  2.7170871907973138e-05  2.7121786133757175e-05  2.7104936148232694e-05  2.7099366331813983e-05  2.7097487464796452e-05  2.7096207467238230e-05  2.7091443970948603e-05  2.7064966548164192e-05  2.6930232324257700e-05  2.6350040984194181e-05  2.4378208016121041e-05  1.8608436877503898e-05  1.1008366199173607e-05  5.6200564899109710e-06  2.5148283913754704e-06  1.0080676278021702e-06  3.7013838409165317e-07  1.2674632939603864e-07  4.1037495257627805e-08  1.2695751344312755e-08  3.7834056635860256e-09  1.0932030018300077e-09  3.1001220848003946e-10  1.0497358219684171e-10  6.3333213189251056e-11  2.5627531667112866e-11  8.6088287136782286e-12  2.6284321480369756e-12  7.6129881628384554e-13  2.1349529567577018e-13  5.8578315957489019e-14  1.5816247008001362e-14  4.2166133542658922e-15  1.1123634149462776e-15  2.9078756314495521e-16  7.5404501079125091e-17  1.9411061462431001e-17  4.9636537778826845e-18  1.2614710532943073e-18  3.1875710779911082e-19  8.0058671111901297e-20  1.9462089683552198e-20  0.0000000000000000e+00  6.0000000000000002e-05  4.9354985960834971e-05  4.0720055144264544e-05  3.4401300203832785e-05  3.0611786318399501e-05  2.8676666420387893e-05  2.7802082196756277e-05  2.7442188338690508e-05  2.7304605274200306e-05  2.7255028909799260e-05  2.7238007282369307e-05  2.7232380069351726e-05  2.7230483096115400e-05  2.7229200069399724e-05  2.7224451045342039e-05  2.7198057275868384e-05  2.7063685885766113e-05  2.6484709815850299e-05  2.4510387250909895e-05  1.8955080441806029e-05  1.1491489447453279e-05  5.9229769299866650e-06  2.6669000786544870e-06  1.0740205699025957e-06  3.9581111989295259e-07  1.3594642178215772e-07  4.4127762721684082e-08  1.3681504044366779e-08  4.0849509051930166e-09  1.1823168521253437e-09  3.3549260766189923e-10  1.1070692921710123e-10  6.4668290766373974e-11  2.6052022591154745e-11  8.7279631872545900e-12  2.6612332394861614e-12  7.7028878385231449e-13  2.1594521890199532e-13  5.9240961368149740e-14  1.5993979220757716e-14  4.2638774897999952e-15  1.1248276819726408e-15  2.9404846785355675e-16  7.6251227887811559e-17  1.9629377600446127e-17  5.0195732462449946e-18  1.2757061580469204e-18  3.2236001626274667e-19  8.0965792104999023e-20  1.9689770038566402e-20  0.0000000000000000e+00  6.0000000000000002e-05  4.9603901062365339e-05  4.0946306540726773e-05  3.4591575672100072e-05  3.0774281006839258e-05  2.8823056194870902e-05  2.7940619982222831e-05  2.7577329264742933e-05  2.7438400986251159e-05  2.7388327051253422e-05  2.7371131139752411e-05  2.7365445594413208e-05  2.7363530209991172e-05  2.7362244116986811e-05  2.7357509860870184e-05  2.7331201145242955e-05  2.7197198411744819e-05  2.6619465429366638e-05  2.4644436037708934e-05  1.9273496297321392e-05  1.1937100412837424e-05  6.2154189712270490e-06  2.8167223203286498e-06  1.1398548027696015e-06  4.2168648753249544e-07  1.4529054361092956e-07  4.7286536819806069e-08  1.4694686717790954e-08  4.3964103520375703e-09  1.2747727155587894e-09  3.6205304084318630e-10  1.1703769286322674e-10  6.6198619755776856e-11  2.6518255000659253e-11  8.8550766378342690e-12  2.6955783197979499e-12  7.7959787504599083e-13  2.1846626406819173e-13  5.9920507325586160e-14  1.6175911387785727e-14  4.3122132749279582e-15  1.1375689256641576e-15  2.9738126265608484e-16  7.7116599554938881e-17  1.9852512620591884e-17  5.0767322419644673e-18  1.2902584002039662e-18  3.2604362202982027e-19  8.1893322020325381e-20  1.9922199947330797e-20  0.0000000000000000e+00  6.0000000000000002e-05  4.9845924562885407e-05  4.1171092687839313e-05  3.4781796982388713e-05  3.0936977946904877e-05  2.8969622573007572e-05  2.8079280244503876e-05  2.7712558854994814e-05  2.7572269325580009e-05  2.7521691206924521e-05  2.7504318518246700e-05  2.7498573760478737e-05  2.7496639677144966e-05  2.7495350472855791e-05  2.7490631211718218e-05  2.7464408674688095e-05  2.7330779683981763e-05  2.6754316935058908e-05  2.4780145470319001e-05  1.9567582323052247e-05  1.2346538238714840e-05  6.4961202356239060e-06  2.9635862010702014e-06  1.2052742504325201e-06  4.4765857644433924e-07  1.5474481516087389e-07  5.0503922782461080e-08  1.5732636858672512e-08  4.7171243773577672e-09  1.3704223467173509e-09  3.8966667606447695e-10  1.2391931391082445e-10  6.7926722024894452e-11  2.7026363721060853e-11  8.9901018514070569e-12  2.7314349742431195e-12  7.8921496488326432e-13  2.2105501009226900e-13  6.0615957850317802e-14  1.6361762937195183e-14  4.3615434119264627e-15  1.1505661981124540e-15  3.0078034408413349e-16  7.7999133359196958e-17  2.0080077847545407e-17  5.1350297236892329e-18  1.3051017093918877e-18  3.2980124428749696e-19  8.2839557519629650e-20  2.0158948444967503e-20  0.0000000000000000e+00  6.0000000000000002e-05  5.0081108308524940e-05  4.1394451862969660e-05  3.4971979349081521e-05  3.1099886411765205e-05  2.9116375136314533e-05  2.8218074112487292e-05  2.7847889404525905e-05  2.7706223215933501e-05  2.7655134586323364e-05  2.7637582743686124e-05  2.7631777936831585e-05  2.7629824880262978e-05  2.7628532513074405e-05  2.7623828417692432e-05  2.7597692955906703e-05  2.7464442156475733e-05  2.6889276600674927e-05  2.4917325798616687e-05  1.9840678453562282e-05  1.2722037509054630e-05  6.7641407059660156e-06  3.1068839807023823e-06  1.2700163683636704e-06  4.7363314751880500e-07  1.6427946003486971e-07  5.3771449986776793e-08  1.6793174244962834e-08  5.0465920139359033e-09  1.4691681306491965e-09  4.1832120877278913e-10  1.3131852304262668e-10  6.9854915205043466e-11  2.7576400858919590e-11  9.1329625388520442e-12  2.7687735247793416e-12  7.9913066267722307e-13  2.2370867623331799e-13  6.1326518449645855e-14  1.6551312226996549e-14  4.4118071554757627e-15  1.1638030840339230e-15  3.0424132813725046e-16  7.8897670326902725e-17  2.0311769638640291e-17  5.1943867824606531e-18  1.3202157303771658e-18  3.3362766763312369e-19  8.3803169229788010e-20  2.0399685083325727e-20  0.0000000000000000e+00  6.0000000000000002e-05  5.0309593207034433e-05  4.1616434399111018e-05  3.5162144377703423e-05  3.1263020228795624e-05  2.9263327086260553e-05  2.8357015769385804e-05  2.7983335949816061e-05  2.7840278170170042e-05  2.7788672921659427e-05  2.7770939638070067e-05  2.7765073979087971e-05  2.7763101685271746e-05  2.7761806097979776e-05  2.7757117293022732e-05  2.7731069614216250e-05  2.7598200898442199e-05  2.7024359545256582e-05  2.5055807432990717e-05  2.0095650483342382e-05  1.3066247141852064e-05  7.0188592417953518e-06  3.2461038428605858e-06  1.3338472658494217e-06  4.9952464554112253e-07  1.7386739642226743e-07  5.7081505710265408e-08  1.7874396560959023e-08  5.3844027231231274e-09  1.5709416318349875e-09  4.4801287833474077e-10  1.3921225180787405e-10  7.1985345806773262e-11  2.8168328286896977e-11  9.2835706794102134e-12  2.8075657778131115e-12  8.0933685727639772e-13  2.2642497773820229e-13  6.2051553372688603e-14  1.6744384387274657e-14  4.4629569434065436e-15  1.1772667841232747e-15  3.0776080439666345e-16  7.9811310027896927e-17  2.0547352261249828e-17  5.2547421837171527e-18  1.3355846712878700e-18  3.3751884656122932e-19  8.4783126300952512e-20  2.0644159448041152e-20  0.0000000000000000e+00  6.0000000000000002e-05  5.0531591646611560e-05  4.1837102379737933e-05  3.5352319778630479e-05  3.1426397489757106e-05  2.9410495028125843e-05  2.8496122315100776e-05  2.8118916183092023e-05  2.7974452231825735e-05  2.7922324421710407e-05  2.7904407478449202e-05  2.7898480189966023e-05  2.7896488402706850e-05  2.7895189533366852e-05  2.7890516105703149e-05  2.7864556760891723e-05  2.7732073532452986e-05  2.7159583491394154e-05  2.5195441176163722e-05  2.0334963843958624e-05  1.3381949933545679e-05  7.2599577598439791e-06  3.3808287549356925e-06  1.3965607147906094e-06  5.2525534349218361e-07  1.8348377053459909e-07  6.0427133896341007e-08  1.8974604109197756e-08  5.7302108338546199e-09  1.6756955238148633e-09  4.7874435055817598e-10  1.4758559772144484e-10  7.4320027152247611e-11  2.8802010328314231e-11  9.4418243716549648e-12  2.8477840232813967e-12  8.1982635347851598e-13  2.2920201040326590e-13  6.2790551430604141e-14  1.6940841600821651e-14  4.5149557039879517e-15  1.1909473826892466e-15  3.1133613962980538e-16  8.0739358510025947e-17  2.0786644223973758e-17  5.3160488093984025e-18  1.3511963845988666e-18  3.4147166972145822e-19  8.5778636233438483e-20  2.0892184818559673e-20  0.0000000000000000e+00  6.0000000000000002e-05  5.0747373074780447e-05  4.2056529373881202e-05  3.5542539098380431e-05  3.1590040291721010e-05  2.9557898776407166e-05  2.8635413636959245e-05  2.8254650365700619e-05  2.8108765910658120e-05  2.8056109717345537e-05  2.8038006946505706e-05  2.8032017270385607e-05  2.8030005739295416e-05  2.8028703521921407e-05  2.8024045527410887e-05  2.7998174937318915e-05  2.7866080166874506e-05  2.7294968563039467e-05  2.5336097890984784e-05  2.0560747403715408e-05  1.3671903377294667e-05  7.4873941487344818e-06  3.5107366360756960e-06  1.4579789959378040e-06  5.5075555733774763e-07  1.9310596799492230e-07  6.3802018688494787e-08  2.0092289516505946e-08  6.0837313408443155e-09  1.7834021809473663e-09  5.1052448808966221e-10  1.5643049036452483e-10  7.6860874332878915e-11  2.9477206614303298e-11  9.6076061151820623e-12  2.8894002402338634e-12  8.3059258230262840e-13  2.3203815840703292e-13  6.3543098687083343e-14  1.7140575336034264e-14  4.5677747042450763e-15  1.2048372625493247e-15  3.1496532092133439e-16  8.1681286722581638e-17  2.1029507364178209e-17  5.3782708181802544e-18  1.3670416337769285e-18  3.4548377184094132e-19  8.6789096878370772e-20  2.1143625138770139e-20  0.0000000000000000e+00  6.0000000000000002e-05  5.0957252216155967e-05  4.2274800176397665e-05  3.5732841462334520e-05  3.1753974501320472e-05  2.9705561176124624e-05  2.8774912285587815e-05  2.8390561239004131e-05  2.8243242111612724e-05  2.8190051798589841e-05  2.8171761068899510e-05  2.8165708261041228e-05  2.8163676739917483e-05  2.8162371105057517e-05  2.8157728574103390e-05  2.8131947050841749e-05  2.8000243322009103e-05  2.7430537118050439e-05  2.5477667765326467e-05  2.0774848021821047e-05  1.3938753596277796e-05  7.7013680672135277e-06  3.6356003144403788e-06  1.5179544847203202e-06  5.7596437798084533e-07  2.0271386731072707e-07  6.7200563027586775e-08  2.1226161049032659e-08  6.4447467609224935e-09  1.8940557187024029e-09  5.4336908078462702e-10  1.6574484462098040e-10  7.9609731227135450e-11  3.0193565111226761e-11  9.7807814611282848e-12  2.9323854725011116e-12  8.4162937115262057e-13  2.3493202087928234e-13  6.4308856660365495e-14  1.7343500142817725e-14  4.6213918309046424e-15  1.2189306375848321e-15  3.1864683036823094e-16  8.2636697312189118e-17  2.1275838134945898e-17  5.4413813785704644e-18  1.3831135079913402e-18  3.4955338365088181e-19  8.7814058142988076e-20  2.1398384632622517e-20  0.0000000000000000e+00  6.0000000000000002e-05  5.1161579492623585e-05  4.2492010530176034e-05  3.5923271323981099e-05  3.1918229536286159e-05  2.9853507935477306e-05  2.8914643353357060e-05  2.8526673931648532e-05  2.8377906056836200e-05  2.8324175943212268e-05  2.8305695148512725e-05  2.8299578474636812e-05  2.8297526720153496e-05  2.8296217595362567e-05  2.8291590537446808e-05  2.8265898302278711e-05  2.8134587849540318e-05  2.7566313606437490e-05  2.5620059297163719e-05  2.0978876884605751e-05  1.4184993169424236e-05  7.9022839219645894e-06  3.7552865328651613e-06  1.5763714006435435e-06  6.0083063256752963e-07  2.1229021560123763e-07  7.0618017722406223e-08  2.2375184215193027e-08  6.8131200928109499e-09  2.0076759556158981e-09  5.7730210660316477e-10  1.7553206605675028e-10  8.2568386355250154e-11  3.0950615333988945e-11  9.9611979817549908e-12  2.9767093448458337e-12  8.5293076260098623e-13  2.3788235356218438e-13  6.5087544947249941e-14  1.7549548699782281e-14  4.6757902172366212e-15  1.2332231792890111e-15  3.2237954497507467e-16  8.3605298100175472e-17  2.1525560646613414e-17  5.5053608588726675e-18  1.3994069548796931e-18  3.5367921210770025e-19  8.8853191430460770e-20  2.1656399532335134e-20  0.0000000000000000e+00  6.0000000000000002e-05  5.1360733280459014e-05  4.2708266815704620e-05  3.6113878216771581e-05  3.2082838159366682e-05  3.0001767466194901e-05  2.9054634353381306e-05  2.8663015862349208e-05  2.8512785200510288e-05  2.8458509636903063e-05  2.8439836686778305e-05  2.8433655419014601e-05  2.8431583189665281e-05  2.8430270499893064e-05  2.8425658907278677e-05  2.8400056105163598e-05  2.8269140845044086e-05  2.7702324446874982e-05  2.5763198092649770e-05  2.1174248730696658e-05  1.4412945127568100e-05  8.0907144294792115e-06  3.8697537602832679e-06  1.6331474333686945e-06  6.2531392684602570e-07  2.2182106581945613e-07  7.4050638887957334e-08  2.3538634221588688e-08  7.1888115207463277e-09  2.1243135815993123e-09  6.1235732949975967e-10  1.8580082009303525e-10  8.5738575415382358e-11  3.1747761776374430e-11  1.0148684519160733e-11  3.0223396955074161e-12  8.6449087269122318e-13  2.4088802263324398e-13  6.5878927395109734e-14  1.7758667863025756e-14  4.7309571463747096e-15  1.2477117183773230e-15  3.2616265666166339e-16  8.4586880890032333e-17  2.1778621107516410e-17  5.5701953813753308e-18  1.4159184074057966e-18  3.5786034475401404e-19  8.9906265241745235e-20  2.1917631493225112e-20  0.0000000000000000e+00  6.0000000000000002e-05  5.1555113698398160e-05  4.2923685699732145e-05  3.6304716505494283e-05  3.2247836280681550e-05  3.0150370728673320e-05  2.9194915097512176e-05  2.8799616637582237e-05  2.8647909136407458e-05  2.8593082485177894e-05  2.8574215297328391e-05  2.8567968711450546e-05  2.8565875766694446e-05  2.8564559434602758e-05  2.8559963285352576e-05  2.8534449996836528e-05  2.8403931553460481e-05  2.7838597915437695e-05  2.5907025546119203e-05  2.1362215036637270e-05  1.4624762391876568e-05  8.2673670828747687e-06  3.9790488844382458e-06  1.6882351215469521e-06  6.4938569459664034e-07  2.3129624499554302e-07  7.7495862893498723e-08  2.4716155726971944e-08  7.5718977641851826e-09  2.2440562084683536e-09  6.4858015219756297e-10  1.9656500542708592e-10  8.9121968985719765e-11  3.2584277604923618e-11  1.0343050681086375e-11  3.0692423055071505e-12  8.7630378140147036e-13  2.4394796833215966e-13  6.6682801120370752e-14  1.7970815516359896e-14  4.7868831755287013e-15  1.2623940063107402e-15  3.2999560831341163e-16  8.5581304524470740e-17  2.2034983379892234e-17  5.6358756667383577e-18  1.4326454856666155e-18  3.6209617330383760e-19  9.0973125683825115e-20  2.2182062354192090e-20  0.0000000000000000e+00  6.0000000000000002e-05  5.1745137670483073e-05  4.3138393739234731e-05  3.6495845134742424e-05  3.2413262765341085e-05  3.0299351079593510e-05  2.9335517572138240e-05  2.8936507943771000e-05  2.8783309498176306e-05  2.8727926117208876e-05  2.8708862611241646e-05  2.8702549984425621e-05  2.8700436083997759e-05  2.869911603021964