<?xml version="1.0"?>
<VTKFile type="UnstructuredGrid"  version="0.1"  >
<UnstructuredGrid>
<Piece  NumberOfPoints="2601" NumberOfCells="5000">
<Points>
<DataArray  type="Float64"  NumberOfComponents="3"  format="ascii">-1 0 0  -0.96 0 0  -0.92 0 0  -0.88 0 0  -0.84 0 0  -0.8 0 0  -0.76 0 0  -0.72 0 0  -0.6799999999999999 0 0  -0.64 0 0  -0.6 0 0  -0.5600000000000001 0 0  -0.52 0 0  -0.48 0 0  -0.4399999999999999 0 0  -0.4 0 0  -0.36 0 0  -0.32 0 0  -0.28 0 0  -0.24 0 0  -0.2 0 0  -0.16 0 0  -0.12 0 0  -0.07999999999999996 0 0  -0.04000000000000004 0 0  0 0 0  0.04000000000000004 0 0  0.08000000000000007 0 0  0.1200000000000001 0 0  0.1599999999999999 0 0  0.2 0 0  0.24 0 0  0.28 0 0  0.3200000000000001 0 0  0.3600000000000001 0 0  0.3999999999999999 0 0  0.4399999999999999 0 0  0.48 0 0  0.52 0 0  0.5600000000000001 0 0  0.6000000000000001 0 0  0.6399999999999999 0 0  0.6799999999999999 0 0  0.72 0 0  0.76 0 0  0.8 0 0  0.8400000000000001 0 0  0.8799999999999999 0 0  0.9199999999999999 0 0  0.96 0 0  1 0 0  -1 0.016 0  -0.96 0.016 0  -0.92 0.016 0  -0.88 0.016 0  -0.84 0.016 0  -0.8 0.016 0  -0.76 0.016 0  -0.72 0.016 0  -0.6799999999999999 0.016 0  -0.64 0.016 0  -0.6 0.016 0  -0.5600000000000001 0.016 0  -0.52 0.016 0  -0.48 0.016 0  -0.4399999999999999 0.016 0  -0.4 0.016 0  -0.36 0.016 0  -0.32 0.016 0  -0.28 0.016 0  -0.24 0.016 0  -0.2 0.016 0  -0.16 0.016 0  -0.12 0.016 0  -0.07999999999999996 0.016 0  -0.04000000000000004 0.016 0  0 0.016 0  0.04000000000000004 0.016 0  0.08000000000000007 0.016 0  0.1200000000000001 0.016 0  0.1599999999999999 0.016 0  0.2 0.016 0  0.24 0.016 0  0.28 0.016 0  0.3200000000000001 0.016 0  0.3600000000000001 0.016 0  0.3999999999999999 0.016 0  0.4399999999999999 0.016 0  0.48 0.016 0  0.52 0.016 0  0.5600000000000001 0.016 0  0.6000000000000001 0.016 0  0.6399999999999999 0.016 0  0.6799999999999999 0.016 0  0.72 0.016 0  0.76 0.016 0  0.8 0.016 0  0.8400000000000001 0.016 0  0.8799999999999999 0.016 0  0.9199999999999999 0.016 0  0.96 0.016 0  1 0.016 0  -1 0.032 0  -0.96 0.032 0  -0.92 0.032 0  -0.88 0.032 0  -0.84 0.032 0  -0.8 0.032 0  -0.76 0.032 0  -0.72 0.032 0  -0.6799999999999999 0.032 0  -0.64 0.032 0  -0.6 0.032 0  -0.5600000000000001 0.032 0  -0.52 0.032 0  -0.48 0.032 0  -0.4399999999999999 0.032 0  -0.4 0.032 0  -0.36 0.032 0  -0.32 0.032 0  -0.28 0.032 0  -0.24 0.032 0  -0.2 0.032 0  -0.16 0.032 0  -0.12 0.032 0  -0.07999999999999996 0.032 0  -0.04000000000000004 0.032 0  0 0.032 0  0.04000000000000004 0.032 0  0.08000000000000007 0.032 0  0.1200000000000001 0.032 0  0.1599999999999999 0.032 0  0.2 0.032 0  0.24 0.032 0  0.28 0.032 0  0.3200000000000001 0.032 0  0.3600000000000001 0.032 0  0.3999999999999999 0.032 0  0.4399999999999999 0.032 0  0.48 0.032 0  0.52 0.032 0  0.5600000000000001 0.032 0  0.6000000000000001 0.032 0  0.6399999999999999 0.032 0  0.6799999999999999 0.032 0  0.72 0.032 0  0.76 0.032 0  0.8 0.032 0  0.8400000000000001 0.032 0  0.8799999999999999 0.032 0  0.9199999999999999 0.032 0  0.96 0.032 0  1 0.032 0  -1 0.04800000000000001 0  -0.96 0.04800000000000001 0  -0.92 0.04800000000000001 0  -0.88 0.04800000000000001 0  -0.84 0.04800000000000001 0  -0.8 0.04800000000000001 0  -0.76 0.04800000000000001 0  -0.72 0.04800000000000001 0  -0.6799999999999999 0.04800000000000001 0  -0.64 0.04800000000000001 0  -0.6 0.04800000000000001 0  -0.5600000000000001 0.04800000000000001 0  -0.52 0.04800000000000001 0  -0.48 0.04800000000000001 0  -0.4399999999999999 0.04800000000000001 0  -0.4 0.04800000000000001 0  -0.36 0.04800000000000001 0  -0.32 0.04800000000000001 0  -0.28 0.04800000000000001 0  -0.24 0.04800000000000001 0  -0.2 0.04800000000000001 0  -0.16 0.04800000000000001 0  -0.12 0.04800000000000001 0  -0.07999999999999996 0.04800000000000001 0  -0.04000000000000004 0.04800000000000001 0  0 0.04800000000000001 0  0.04000000000000004 0.04800000000000001 0  0.08000000000000007 0.04800000000000001 0  0.1200000000000001 0.04800000000000001 0  0.1599999999999999 0.04800000000000001 0  0.2 0.04800000000000001 0  0.24 0.04800000000000001 0  0.28 0.04800000000000001 0  0.3200000000000001 0.04800000000000001 0  0.3600000000000001 0.04800000000000001 0  0.3999999999999999 0.04800000000000001 0  0.4399999999999999 0.04800000000000001 0  0.48 0.04800000000000001 0  0.52 0.04800000000000001 0  0.5600000000000001 0.04800000000000001 0  0.6000000000000001 0.04800000000000001 0  0.6399999999999999 0.04800000000000001 0  0.6799999999999999 0.04800000000000001 0  0.72 0.04800000000000001 0  0.76 0.04800000000000001 0  0.8 0.04800000000000001 0  0.8400000000000001 0.04800000000000001 0  0.8799999999999999 0.04800000000000001 0  0.9199999999999999 0.04800000000000001 0  0.96 0.04800000000000001 0  1 0.04800000000000001 0  -1 0.064 0  -0.96 0.064 0  -0.92 0.064 0  -0.88 0.064 0  -0.84 0.064 0  -0.8 0.064 0  -0.76 0.064 0  -0.72 0.064 0  -0.6799999999999999 0.064 0  -0.64 0.064 0  -0.6 0.064 0  -0.5600000000000001 0.064 0  -0.52 0.064 0  -0.48 0.064 0  -0.4399999999999999 0.064 0  -0.4 0.064 0  -0.36 0.064 0  -0.32 0.064 0  -0.28 0.064 0  -0.24 0.064 0  -0.2 0.064 0  -0.16 0.064 0  -0.12 0.064 0  -0.07999999999999996 0.064 0  -0.04000000000000004 0.064 0  0 0.064 0  0.04000000000000004 0.064 0  0.08000000000000007 0.064 0  0.1200000000000001 0.064 0  0.1599999999999999 0.064 0  0.2 0.064 0  0.24 0.064 0  0.28 0.064 0  0.3200000000000001 0.064 0  0.3600000000000001 0.064 0  0.3999999999999999 0.064 0  0.4399999999999999 0.064 0  0.48 0.064 0  0.52 0.064 0  0.5600000000000001 0.064 0  0.6000000000000001 0.064 0  0.6399999999999999 0.064 0  0.6799999999999999 0.064 0  0.72 0.064 0  0.76 0.064 0  0.8 0.064 0  0.8400000000000001 0.064 0  0.8799999999999999 0.064 0  0.9199999999999999 0.064 0  0.96 0.064 0  1 0.064 0  -1 0.08 0  -0.96 0.08 0  -0.92 0.08 0  -0.88 0.08 0  -0.84 0.08 0  -0.8 0.08 0  -0.76 0.08 0  -0.72 0.08 0  -0.6799999999999999 0.08 0  -0.64 0.08 0  -0.6 0.08 0  -0.5600000000000001 0.08 0  -0.52 0.08 0  -0.48 0.08 0  -0.4399999999999999 0.08 0  -0.4 0.08 0  -0.36 0.08 0  -0.32 0.08 0  -0.28 0.08 0  -0.24 0.08 0  -0.2 0.08 0  -0.16 0.08 0  -0.12 0.08 0  -0.07999999999999996 0.08 0  -0.04000000000000004 0.08 0  0 0.08 0  0.04000000000000004 0.08 0  0.08000000000000007 0.08 0  0.1200000000000001 0.08 0  0.1599999999999999 0.08 0  0.2 0.08 0  0.24 0.08 0  0.28 0.08 0  0.3200000000000001 0.08 0  0.3600000000000001 0.08 0  0.3999999999999999 0.08 0  0.4399999999999999 0.08 0  0.48 0.08 0  0.52 0.08 0  0.5600000000000001 0.08 0  0.6000000000000001 0.08 0  0.6399999999999999 0.08 0  0.6799999999999999 0.08 0  0.72 0.08 0  0.76 0.08 0  0.8 0.08 0  0.8400000000000001 0.08 0  0.8799999999999999 0.08 0  0.9199999999999999 0.08 0  0.96 0.08 0  1 0.08 0  -1 0.09600000000000002 0  -0.96 0.09600000000000002 0  -0.92 0.09600000000000002 0  -0.88 0.09600000000000002 0  -0.84 0.09600000000000002 0  -0.8 0.09600000000000002 0  -0.76 0.09600000000000002 0  -0.72 0.09600000000000002 0  -0.6799999999999999 0.09600000000000002 0  -0.64 0.09600000000000002 0  -0.6 0.09600000000000002 0  -0.5600000000000001 0.09600000000000002 0  -0.52 0.09600000000000002 0  -0.48 0.09600000000000002 0  -0.4399999999999999 0.09600000000000002 0  -0.4 0.09600000000000002 0  -0.36 0.09600000000000002 0  -0.32 0.09600000000000002 0  -0.28 0.09600000000000002 0  -0.24 0.09600000000000002 0  -0.2 0.09600000000000002 0  -0.16 0.09600000000000002 0  -0.12 0.09600000000000002 0  -0.07999999999999996 0.09600000000000002 0  -0.04000000000000004 0.09600000000000002 0  0 0.09600000000000002 0  0.04000000000000004 0.09600000000000002 0  0.08000000000000007 0.09600000000000002 0  0.1200000000000001 0.09600000000000002 0  0.1599999999999999 0.09600000000000002 0  0.2 0.09600000000000002 0  0.24 0.09600000000000002 0  0.28 0.09600000000000002 0  0.3200000000000001 0.09600000000000002 0  0.3600000000000001 0.09600000000000002 0  0.3999999999999999 0.09600000000000002 0  0.4399999999999999 0.09600000000000002 0  0.48 0.09600000000000002 0  0.52 0.09600000000000002 0  0.5600000000000001 0.09600000000000002 0  0.6000000000000001 0.09600000000000002 0  0.6399999999999999 0.09600000000000002 0  0.6799999999999999 0.09600000000000002 0  0.72 0.09600000000000002 0  0.76 0.09600000000000002 0  0.8 0.09600000000000002 0  0.8400000000000001 0.09600000000000002 0  0.8799999999999999 0.09600000000000002 0  0.9199999999999999 0.09600000000000002 0  0.96 0.09600000000000002 0  1 0.09600000000000002 0  -1 0.112 0  -0.96 0.112 0  -0.92 0.112 0  -0.88 0.112 0  -0.84 0.112 0  -0.8 0.112 0  -0.76 0.112 0  -0.72 0.112 0  -0.6799999999999999 0.112 0  -0.64 0.112 0  -0.6 0.112 0  -0.5600000000000001 0.112 0  -0.52 0.112 0  -0.48 0.112 0  -0.4399999999999999 0.112 0  -0.4 0.112 0  -0.36 0.112 0  -0.32 0.112 0  -0.28 0.112 0  -0.24 0.112 0  -0.2 0.112 0  -0.16 0.112 0  -0.12 0.112 0  -0.07999999999999996 0.112 0  -0.04000000000000004 0.112 0  0 0.112 0  0.04000000000000004 0.112 0  0.08000000000000007 0.112 0  0.1200000000000001 0.112 0  0.1599999999999999 0.112 0  0.2 0.112 0  0.24 0.112 0  0.28 0.112 0  0.3200000000000001 0.112 0  0.3600000000000001 0.112 0  0.3999999999999999 0.112 0  0.4399999999999999 0.112 0  0.48 0.112 0  0.52 0.112 0  0.5600000000000001 0.112 0  0.6000000000000001 0.112 0  0.6399999999999999 0.112 0  0.6799999999999999 0.112 0  0.72 0.112 0  0.76 0.112 0  0.8 0.112 0  0.8400000000000001 0.112 0  0.8799999999999999 0.112 0  0.9199999999999999 0.112 0  0.96 0.112 0  1 0.112 0  -1 0.128 0  -0.96 0.128 0  -0.92 0.128 0  -0.88 0.128 0  -0.84 0.128 0  -0.8 0.128 0  -0.76 0.128 0  -0.72 0.128 0  -0.6799999999999999 0.128 0  -0.64 0.128 0  -0.6 0.128 0  -0.5600000000000001 0.128 0  -0.52 0.128 0  -0.48 0.128 0  -0.4399999999999999 0.128 0  -0.4 0.128 0  -0.36 0.128 0  -0.32 0.128 0  -0.28 0.128 0  -0.24 0.128 0  -0.2 0.128 0  -0.16 0.128 0  -0.12 0.128 0  -0.07999999999999996 0.128 0  -0.04000000000000004 0.128 0  0 0.128 0  0.04000000000000004 0.128 0  0.08000000000000007 0.128 0  0.1200000000000001 0.128 0  0.1599
[...]
<PointData  Scalars="f_100"> 
<DataArray  type="Float64"  Name="f_100"  format="ascii">6.0000000000000002e-05  5.3936170114083132e-05  5.2029261546100932e-05  5.0555689614365707e-05  4.8850982850901348e-05  4.6732310211527180e-05  4.4226236366301138e-05  4.1471489683907786e-05  3.8659109205638419e-05  3.5981659560208410e-05  3.3593542531609578e-05  3.1588753455502325e-05  2.9997422915264597e-05  2.8796494340521283e-05  2.7926766323121509e-05  2.7308733589711750e-05  2.6850846534935360e-05  2.6434222578373750e-05  2.5797974788750736e-05  2.1201541845640566e-05  1.5475238019119679e-05  1.2608304091587243e-05  1.0388344767699800e-05  8.4844343222502925e-06  6.7962611834301030e-06  5.3023168715976427e-06  4.0105601097939505e-06  2.9329329279406911e-06  2.0732119902514269e-06  1.4288460761538231e-06  1.0203022207350861e-06  1.0471859862828365e-06  1.2322692247362340e-06  9.4717851229573318e-07  6.2503619733534369e-07  3.8132498910766876e-07  2.2135275546423435e-07  1.2373581971729608e-07  6.6990529499363608e-08  3.5239097841159181e-08  1.8048567430278033e-08  9.0149221662777159e-09  4.3970949078833076e-09  2.0968767497162581e-09  9.7871921185172373e-10  4.4757139556321073e-10  2.0071968498804502e-10  8.8328166027318604e-11  3.8004717121449811e-11  1.4977153731047360e-11  0.0000000000000000e+00  6.0000000000000002e-05  5.4210897974920345e-05  5.2295913502848513e-05  5.0816330995040183e-05  4.9105347412935474e-05  4.6978322060930106e-05  4.4461376610268104e-05  4.1693590153357452e-05  3.8866856406900613e-05  3.6174826872771659e-05  3.3772953552057662e-05  3.1756036689788983e-05  3.0154662216127348e-05  2.8945881664749361e-05  2.8070330352553351e-05  2.7448171945713468e-05  2.6987457164039542e-05  2.6569045593963056e-05  2.5919113453428107e-05  2.1752041142423128e-05  1.6252540106919807e-05  1.3254179968139252e-05  1.0925710686351907e-05  8.9307991924076115e-06  7.1618321501766806e-06  5.5948950355601847e-06  4.2379615938479357e-06  3.1038566652792158e-06  2.1970919579167468e-06  1.5150714679398771e-06  1.0769312764021985e-06  1.0620436711563689e-06  1.2399043214232006e-06  9.5400211307371159e-07  6.2969846636927569e-07  3.8423500271093384e-07  2.2307419692650690e-07  1.2471441545676938e-07  6.7528526403627660e-08  3.5526125626721028e-08  1.8197508623658634e-08  9.0902219085653480e-09  4.4342382361933953e-09  2.1147757216231972e-09  9.8715526975799792e-10  4.5146438595398926e-10  2.0248044219616096e-10  8.9109504856343396e-11  3.8345655600361874e-11  1.5126601594679212e-11  0.0000000000000000e+00  6.0000000000000002e-05  5.4481557970365626e-05  5.2561729262535546e-05  5.1077595714717117e-05  4.9360780596788077e-05  4.7225521349656605e-05  4.4697712237324676e-05  4.1916851393797372e-05  3.9075710261621511e-05  3.6369037067824488e-05  3.3953340348086782e-05  3.1924230409593865e-05  3.0312752633612006e-05  2.9096069392000125e-05  2.8214654068476048e-05  2.7588340525380558e-05  2.7124791260060704e-05  2.6704714514454768e-05  2.6044564083894801e-05  2.2255845898831520e-05  1.7022936390378266e-05  1.3898015815305274e-05  1.1466937507949509e-05  9.3836014966360038e-06  7.5347547826540923e-06  5.8947836828205104e-06  4.4720470513239234e-06  3.2805070183553151e-06  2.3256038868615775e-06  1.6048258537097138e-06  1.1358487345588469e-06  1.0817516931337280e-06  1.2492499878906420e-06  9.6138473431953187e-07  6.3454132835972443e-07  3.8721015636437332e-07  2.2482310998018867e-07  1.2570622872392206e-07  6.8073370873001914e-08  3.5816792231854321e-08  1.8348378815663401e-08  9.1665284687223842e-09  4.4718961772432889e-09  2.1329318251546726e-09  9.9571690412675444e-10  4.5541735141055527e-10  2.0426923471025353e-10  8.9903684268551425e-11  3.8692347793780832e-11  1.5278072519519042e-11  0.0000000000000000e+00  6.0000000000000002e-05  5.4747352454079752e-05  5.2826670032609215e-05  5.1339479990829849e-05  4.9617288686223462e-05  4.7473917492147277e-05  4.4935253008670264e-05  4.2141282121816450e-05  3.9285677737057218e-05  3.6564295174112906e-05  3.4134706226666288e-05  3.2093336668705825e-05  3.0471695516142374e-05  2.9247058652724763e-05  2.8359738732088170e-05  2.7729240886044613e-05  2.7262850404705311e-05  2.6841221750647649e-05  2.6174055763641931e-05  2.2719244064622364e-05  1.7767236629981659e-05  1.4536385117930099e-05  1.2010547949686379e-05  9.8420805957878730e-06  7.9146511708675620e-06  6.2018202991757150e-06  4.7127702529621558e-06  3.4628937593048355e-06  2.4587801284313981e-06  1.6981550642252671e-06  1.1972105617035780e-06  1.1057564966793423e-06  1.2603343119331437e-06  9.6933527310717458e-07  6.3956684062204096e-07  3.9025037862290547e-07  2.2659903963216873e-07  1.2671085857484721e-07  6.8624785559054327e-08  3.6110924136710774e-08  1.8501075765479082e-08  9.2437842132038000e-09  4.5100374158243190e-09  2.1513285888902144e-09  1.0043957036366769e-09  4.5942611245986249e-10  2.0608403791298840e-10  9.0709745374603983e-11  3.9044342846644134e-11  1.5431321512168088e-11  0.0000000000000000e+00  6.0000000000000002e-05  5.5007722162645754e-05  5.3090712960408859e-05  5.1601983657820998e-05  4.9874878608837781e-05  4.7723519607488449e-05  4.5174008182641188e-05  4.2366890655084191e-05  3.9496765643078474e-05  3.6760606337828274e-05  3.4317054848084303e-05  3.2263358029660402e-05  3.0631492785141183e-05  2.9398851136412942e-05  2.8505586096399175e-05  2.7870874982558249e-05  2.7401636478427353e-05  2.6978562471254629e-05  2.6307314943768297e-05  2.3147834580763060e-05  1.8476193264274973e-05  1.5166809831214256e-05  1.2555250757341911e-05  1.0305554647853027e-05  8.3011908899449988e-06  6.5158807637907963e-06  4.9601224864937683e-06  3.6510651828558863e-06  2.5966906199750603e-06  1.7951356987208827e-06  1.2611636541833366e-06  1.1336554480938222e-06  1.2731804280800432e-06  9.7786051414375791e-07  6.4477644570885599e-07  3.9335555871452052e-07  2.2840161142450896e-07  1.2772798351609573e-07  6.9182549374514847e-08  3.6408383201727650e-08  1.8655518077554291e-08  9.3219432413815837e-09  4.5486370009860191e-09  2.1699528839265705e-09  1.0131849618313851e-09  4.6348733600282418e-10  2.0792323693215420e-10  9.1526923272289305e-11  3.9401281226396836e-11  1.5586161578382028e-11  0.0000000000000000e+00  6.0000000000000002e-05  5.5262302796334319e-05  5.3353849073591447e-05  5.1865110032274584e-05  5.0133557986934221e-05  4.7974336628067366e-05  4.5413986626548493e-05  4.2593684995769976e-05  3.9708980669831616e-05  3.6957975810319028e-05  3.4500390170735799e-05  3.2434297479702765e-05  3.0792146838312301e-05  2.9551448996235810e-05  2.8652198321860608e-05  2.8013245097908313e-05  2.7541151594995091e-05  2.7116733799669675e-05  2.6444072781131402e-05  2.3546528676236511e-05  1.9146337841071720e-05  1.5787296361250891e-05  1.3099888755503633e-05  1.0773403630712712e-05  8.6940822428429681e-06  6.8368723741866578e-06  5.2141246074138474e-06  3.8450984469892908e-06  2.7394322861196519e-06  1.8958660453795028e-06  1.3278470729722118e-06  1.1651574935934410e-06  1.2878063030909498e-06  9.8696517008979365e-07  6.5017098109538133e-07  3.9652552680884625e-07  2.3023050980887746e-07  1.2875734523061841e-07  6.9746486751430718e-08  3.6709060062742146e-08  1.8811641336161458e-08  9.4009692117157852e-09  4.5876751652389641e-09  2.1887943023207606e-09  1.0220793592845284e-09  4.6759837711646631e-10  2.0978554985894858e-10  9.2354610608948791e-11  3.9762877567840336e-11  1.5742452591439371e-11  0.0000000000000000e+00  6.0000000000000002e-05  5.5510888987652178e-05  5.3616081837729813e-05  5.2128865804644450e-05  5.0393335179264982e-05  4.8226377388984465e-05  4.5655196908603567e-05  4.2821672898917368e-05  3.9922329418335107e-05  3.7156408937555356e-05  3.4684716405336071e-05  3.2606158361417688e-05  3.0953660469991496e-05  2.9704854770650320e-05  2.8799577907107785e-05  2.8156353786388131e-05  2.7681398049558831e-05  2.7255734171543989e-05  2.6584070296052191e-05  2.3919593955516527e-05  1.9777487517830021e-05  1.6396204695122852e-05  1.3643427989408030e-05  1.1245066058673036e-05  9.0930709463099849e-06  7.1647322907128538e-06  5.4748242244570593e-06  4.0450953600245408e-06  2.8871240186207353e-06  2.0004616841234640e-06  1.3973948162146542e-06  1.2000549833696005e-06  1.3042247966819406e-06  9.9665191032906845e-07  6.5575068703634723e-07  3.9976003775426813e-07  2.3208546042459510e-07  1.2979873526850090e-07  7.0316458867127864e-08  3.7012868741229472e-08  1.8969394953721537e-08  9.4808335706772535e-09  4.6271363632128697e-09  2.2078446513930151e-09  1.0310747051762108e-09  4.7175715050607784e-10  2.1166996539352697e-10  9.3192328006921863e-11  4.0128906756236637e-11  1.5900092234152562e-11  0.0000000000000000e+00  6.0000000000000002e-05  5.5753404450649322e-05  5.3877426149282813e-05  5.2393260947990102e-05  5.0654219314264361e-05  4.8479650701318966e-05  4.5897647373383088e-05  4.3050861928459930e-05  4.0136818425327248e-05  3.7355911151112469e-05  3.4870037976955358e-05  3.2778944315470305e-05  3.1116036805556065e-05  2.9859071318950379e-05  2.8947727632109268e-05  2.8300203827069006e-05  2.7822378277449463e-05  2.7395562827566424e-05  2.6727061816595042e-05  2.4270717883996660e-05  2.0371258860789387e-05  1.6992235564346738e-05  1.4184961710521086e-05  1.1720042398913578e-05  9.4979427833796148e-06  7.4994290038297577e-06  5.7422958081284213e-06  4.2511812698005416e-06  3.0399048084262672e-06  2.1090537205441383e-06  1.4699390238467885e-06  1.2382034206952061e-06  1.3224438706899663e-06  1.0069213805254972e-06  6.6151521338978006e-07  4.0305875783416779e-07  2.3396621561986393e-07  1.3085198417380905e-07  7.0892356480366987e-08  3.7319742246809985e-08  1.9128739601251212e-08  9.5615141098335633e-09  4.6670084889864193e-09  2.2270975422914740e-09  1.0401677271737676e-09  4.7596202604934592e-10  2.1357569220645851e-10  9.4039700059098087e-11  4.0499192636601096e-11  1.6059008635505310e-11  0.0000000000000000e+00  6.0000000000000002e-05  5.5989877299513250e-05  5.4137907627431004e-05  5.2658308636717464e-05  5.0916220315362652e-05  4.8734165411818240e-05  4.6141346203677059e-05  4.3281259503083120e-05  4.0352454183435872e-05  3.7556487960465353e-05  3.5056359493542388e-05  3.2952659233345537e-05  3.1279279247413682e-05  3.0014101768285372e-05  2.9096650511504324e-05  2.8444798185718445e-05  2.7964094821519216e-05  2.7536219419025330e-05  2.6872817096896799e-05  2.4603077326443640e-05  2.0930188898006315e-05  1.7574443393049410e-05  1.4723719141227204e-05  1.2197901728914355e-05  9.9085283843769006e-06  7.8409655223510859e-06  6.0166424977384793e-06  4.4635057491760271e-06  3.1979336831470142e-06  2.2217885214660145e-06  1.5456131242876560e-06  1.2795068675955036e-06  1.3424668622173882e-06  1.0177722152619593e-06  6.6746362605077268e-07  4.0642125416100493e-07  2.3587254267155722e-07  1.3191695261421550e-07  7.1474094085308214e-08  3.7629628990074075e-08  1.9289645113562689e-08  9.6429937903124449e-09  4.7072822388773161e-09  2.2465480552426559e-09  1.0493559005842655e-09  4.8021174391527438e-10  2.1550211781377342e-10  9.4896435844996474e-11  4.0873598852725739e-11  1.6219154391968438e-11  0.0000000000000000e+00  6.0000000000000002e-05  5.6220419688956270e-05  5.4397562103415315e-05  5.2924025170210354e-05  5.1179348918928966e-05  4.8989930451146206e-05  4.6386301471063648e-05  4.3512872933741093e-05  4.0569243157541429e-05  3.7758144946413304e-05  3.5243685719830440e-05  3.3127307218341753e-05  3.1443391430526986e-05  3.0169949470106296e-05  2.9246349756304862e-05  2.8590139983646493e-05  2.8106550306298741e-05  2.7677703706688437e-05  2.7021122425071990e-05  2.4919406846187073e-05  2.1457221844081914e-05  1.8142241239605579e-05  1.5259075095545407e-05  1.2678289836145313e-05  1.0324709148417409e-05  8.1893835690356447e-06  6.2979989261191363e-06  4.6822443497158001e-06  3.3613907025996774e-06  2.3388283292411148e-06  1.6245547403834328e-06  1.3239074090649753e-06  1.3642927653640015e-06  1.0292010458808163e-06  6.7359441351481260e-07  4.0984698638462660e-07  2.3780421425435707e-07  1.3299352415819656e-07  7.2061605144211088e-08  3.7942489857162532e-08  1.9452088781638466e-08  9.7252597851036612e-09  4.7479505926461937e-09  2.2661924671843703e-09  1.0586373094327371e-09  4.8450534558646305e-10  2.1744877517670008e-10  9.5762313115293337e-11  4.1252021413233245e-11  1.6380501720013229e-11  0.0000000000000000e+00  6.0000000000000002e-05  5.6445211066399261e-05  5.4656435233121827e-05  5.3190429897616993e-05  5.1443616685348392e-05  4.9246954872465286e-05  4.6632521177142936e-05  4.3745709454312764e-05  4.0787191798041825e-05  3.7960887755475552e-05  3.5432021555707118e-05  3.3302892553377183e-05  3.1608377185789898e-05  3.0326617964361700e-05  2.9396828742463961e-05  2.8736232472234748e-05  2.8249747417610642e-05  2.7820015336251361e-05  2.7171780973756887e-05  2.5222062074395354e-05  2.1955415561755314e-05  1.8695389874516036e-05  1.5790558783395161e-05  1.3160937786085162e-05  1.0746423763552608e-05  8.5447683872114530e-06  6.5865346812147714e-06  4.9076010168249014e-06  3.5304785978558299e-06  2.4603524106401017e-06  1.7069083179339734e-06  1.3713775437462609e-06  1.3879164860102243e-06  1.0412025054176410e-06  6.7990549398982805e-07  4.1333530043985745e-07  2.3976100078857047e-07  1.3408159940856737e-07  7.2654838203366277e-08  3.8258295824791228e-08  1.9616053960741716e-08  9.8083026988234346e-09  4.7890083910872274e-09  2.2860280301401950e-09  1.0680105334915091e-09  4.8884211780055743e-10  2.1941531557290459e-10  9.6637165453017224e-11  4.1634382657994983e-11  1.6543038532507333e-11  0.0000000000000000e+00  6.0000000000000002e-05  5.6664484441243073e-05  5.4914582179416739e-05  5.3457545141065183e-05  5.1709036003697367e-05  4.9505247881828434e-05  4.6880013287022732e-05  4.3979776246615807e-05  4.1006306551596079e-05  3.8164722095119040e-05  3.5621372018284637e-05  3.3479419674418294e-05  3.1774240509867879e-05  3.0484110950062842e-05  2.9548090985080393e-05  2.8883079012126510e-05  2.8393688886568762e-05  2.7963153676061713e-05  2.7324612593583642e-05  2.5513076562260046e-05  2.2427779599968668e-05  1.9233973257399369e-05  1.6317860996676529e-05  1.3645670419485884e-05  1.1173675020736189e-05  8.9072539340688149e-06  6.8824581895761743e-06  5.1398109384530025e-06  3.7054248238615567e-06  2.5865585498948317e-06  1.7928275039213513e-06  1.4219146950067214e-06  1.4133290475776884e-06  1.0537692322863168e-06  6.8639422339433705e-07  4.1688542409934150e-07  2.4174266436057983e-07  1.3518109125350861e-07  7.3253753732354460e-08  3.8577026016647073e-08  1.9781528935980089e-08  9.8921159320297327e-09  4.8304519920641279e-09  2.3060527908605591e-09  1.0774745564008127e-09  4.9322154698502299e-10  2.2140148655864281e-10  9.7520871849715373e-11  4.2020626359894523e-11  1.6706765269421282e-11  0.0000000000000000e+00  6.0000000000000002e-05  5.6878515173173625e-05  5.5172067326507094e-05  5.3725396115320488e-05  5.1975620090443961e-05  4.9764818861611222e-05  4.7128785756371427e-05  4.4215080460779081e-05  4.1226593869815806e-05  3.8369653729698004e-05  3.5811742227037020e-05  3.3656893148545829e-05  3.1940985540357883e-05  3.0642432261082054e-05  2.9700140117227784e-05  2.9030683056239915e-05  2.8538377477119986e-05  2.8107117705024252e-05  2.7479453206156593e-05  2.5794211722007548e-05  2.2877191570349456e-05  1.9758365539218197e-05  1.6840839303386913e-05  1.4132414482162657e-05  1.1606536744831951e-05  9.2770283300966722e-06  7.1860208986370108e-06  5.3791436990370502e-06  3.8864838980723322e-06  2.7176647804186701e-06  1.8824773245629615e-06  1.4755372658202803e-06  1.4405177347232374e-06  1.0668918741615602e-06  6.9305740451212347e-07  4.2049646413190931e-07  2.4374895396300855e-07  1.3629192103911531e-07  7.3858321555809334e-08  3.8898666120227131e-08  1.9948505997766305e-08  9.9766951632565969e-09  4.8722789903756644e-09  2.3262654440170798e-09  1.0870286909270235e-09  4.9764328221295679e-10  2.2340711406254016e-10  9.8413348240444414e-11  4.2410713746896527e-11  1.6871692344127174e-11  0.0000000000000000e+00  6.0000000000000002e-05  5.7087611862467150e-05  5.5428964000469062e-05  5.3994010842451758e-05  5.2243382982565320e-05  5.0025677388010535e-05  4.7378846553123160e-05  4.4451629231795437e-05  4.1448060216286412e-05  3.8575688477000829e-05  3.6003137391477258e-05  3.3835317655844978e-05  3.2108616535324724e-05  3.0801585846249048e-05  2.9852979872577204e-05  2.9179048135915897e-05  2.8683815976463589e-05  2.8251905940540008e-05  2.7636153917416831e-05  2.6067000107549955e-05  2.3306359747030312e-05  2.0269194566596428e-05  1.7359521163737513e-05  1.4621206232935554e-05  1.2045160737066238e-05  9.6543394859459156e-06  7.4975216856806253e-06  5.6259066657549712e-06  4.0739399542760073e-06  2.8539112969056576e-06  1.9760362171678762e-06  1.5322818232101520e-06  1.4694661678896661e-06  1.0805590933268592e-06  6.9989129751855732e-07  4.2416740489537478e-07  2.4577960184531686e-07  1.3741401550257150e-07  7.4468518770608660e-08  3.9223207097992371e-08  2.0116980688358647e-08  1.0062037926886409e-08  4.9144879895407911e-09  2.3466652126692908e-09  1.0966725181412703e-09  5.0210710507600535e-10  2.2543208783134168e-10  9.9314540627066805e-11  4.2804620269887962e-11  1.7037838091787766e-11  0.0000000000000000e+00  6.0000000000000002e-05  5.7292108993160444e-05  5.5685354178909460e-05  5.4263420060480715e-05  5.2512339525446510e-05  5.0287833243468711e-05  4.7630203674733285e-05  4.4689429692930751e-05  4.1670712072229122e-05  3.8782832205313724e-05  3.6195562800936959e-05  3.4014697974446919e-05  3.2277137856435410e-05  3.0961575752975214e-05  3.0006614071129609e-05  2.9328177849635888e-05  2.8830007187822660e-05  2.8397516398041372e-05  2.7794579943497060e-05  2.6332782604889925e-05  2.3717812558413157e-05  2.0767305710971833e-05  1.7874105103771883e-05  1.5112198463736105e-05  1.2489783664846786e-05  1.0039500857193312e-05  7.8173114498985317e-06  5.8804485650057365e-06  4.2681094721817295e-06  2.9955625158553354e-06  2.0736979655101200e-06  1.5922011133850268e-06  1.5001543055015360e-06  1.0947575746161139e-06  7.0689163204742611e-07  4.2789710821644106e-07  2.4783432080132723e-07  1.3854730433373098e-07  7.5084328060799957e-08  3.9550644138773623e-08  2.0286951187784739e-08  1.0148143269008605e-08  4.9570784157944674e-09  2.3672517508872958e-09  1.1064058378993361e-09  5.0661290516950666e-10  2.2747634959372688e-10  1.0022441948876840e-10  4.3202332974577082e-11  1.7205227126934803e-11  0.0000000000000000e+00  6.0000000000000002e-05  5.7492361036830482e-05  5.5941328179192892e-05  5.4533657125307437e-05  5.2782505355900265e-05  5.0551296424744211e-05  4.7882865161726907e-05  4.4928488986545144e-05  4.1894555941056980e-05  3.8991090830922868e-05  3.6389023816084413e-05  3.4195038968164680e-05  3.2446553955048981e-05  3.1122406113771035e-05  3.0161046607495551e-05  2.9478075853844620e-05  2.8976953925150637e-05  2.8543946575172843e-05  2.7954609418185322e-05  2.6592740232376438e-05  2.4113903379695815e-05  2.1253728565077783e-05  1.8384960245193966e-05  1.5605666924288697e-05  1.2940733860871121e-05  1.0432897294498881e-05  8.1457978600025321e-06  6.1431632242137864e-06  4.4693441607204513e-06  3.1429092674066354e-06  2.1756735814805455e-06  1.6553626910237042e-06  1.5325583730313671e-06  1.1094720369748866e-06  7.1405362092787692e-07  4.3168431443003549e-07  2.4991280224949704e-07  1.3969171825630686e-07  7.5705736338378557e-08  3.9880975805200293e-08  2.0458417813248625e-08  1.0235011466691919e-08  5.0000503663747454e-09  2.3880250643599131e-09  1.1162286284894945e-09  5.1116066012764448e-10  2.2953988342648022e-10  1.0114297523499686e-10  4.3603848362311831e-11  1.7373889034155619e-11  0.0000000000000000e+00  6.0000000000000002e-05  5.7688737772352136e-05  5.6196984319322267e-05  5.4804757905449167e-05  5.3053896880627703e-05  5.0816077147236579e-05  4.8136839108157301e-05  4.5168814272784791e-05  4.2119598352031694e-05  3.9200470315987711e-05  3.6583525861877831e-05  3.4376345576262231e-05  3.2616869360730974e-05  3.128408113513325