<?xml version="1.0"?>
<VTKFile type="UnstructuredGrid"  version="0.1"  >
<UnstructuredGrid>
<Piece  NumberOfPoints="2601" NumberOfCells="5000">
<Points>
<DataArray  type="Float64"  NumberOfComponents="3"  format="ascii">-1 0 0  -0.96 0 0  -0.92 0 0  -0.88 0 0  -0.84 0 0  -0.8 0 0  -0.76 0 0  -0.72 0 0  -0.6799999999999999 0 0  -0.64 0 0  -0.6 0 0  -0.5600000000000001 0 0  -0.52 0 0  -0.48 0 0  -0.4399999999999999 0 0  -0.4 0 0  -0.36 0 0  -0.32 0 0  -0.28 0 0  -0.24 0 0  -0.2 0 0  -0.16 0 0  -0.12 0 0  -0.07999999999999996 0 0  -0.04000000000000004 0 0  0 0 0  0.04000000000000004 0 0  0.08000000000000007 0 0  0.1200000000000001 0 0  0.1599999999999999 0 0  0.2 0 0  0.24 0 0  0.28 0 0  0.3200000000000001 0 0  0.3600000000000001 0 0  0.3999999999999999 0 0  0.4399999999999999 0 0  0.48 0 0  0.52 0 0  0.5600000000000001 0 0  0.6000000000000001 0 0  0.6399999999999999 0 0  0.6799999999999999 0 0  0.72 0 0  0.76 0 0  0.8 0 0  0.8400000000000001 0 0  0.8799999999999999 0 0  0.9199999999999999 0 0  0.96 0 0  1 0 0  -1 0.016 0  -0.96 0.016 0  -0.92 0.016 0  -0.88 0.016 0  -0.84 0.016 0  -0.8 0.016 0  -0.76 0.016 0  -0.72 0.016 0  -0.6799999999999999 0.016 0  -0.64 0.016 0  -0.6 0.016 0  -0.5600000000000001 0.016 0  -0.52 0.016 0  -0.48 0.016 0  -0.4399999999999999 0.016 0  -0.4 0.016 0  -0.36 0.016 0  -0.32 0.016 0  -0.28 0.016 0  -0.24 0.016 0  -0.2 0.016 0  -0.16 0.016 0  -0.12 0.016 0  -0.07999999999999996 0.016 0  -0.04000000000000004 0.016 0  0 0.016 0  0.04000000000000004 0.016 0  0.08000000000000007 0.016 0  0.1200000000000001 0.016 0  0.1599999999999999 0.016 0  0.2 0.016 0  0.24 0.016 0  0.28 0.016 0  0.3200000000000001 0.016 0  0.3600000000000001 0.016 0  0.3999999999999999 0.016 0  0.4399999999999999 0.016 0  0.48 0.016 0  0.52 0.016 0  0.5600000000000001 0.016 0  0.6000000000000001 0.016 0  0.6399999999999999 0.016 0  0.6799999999999999 0.016 0  0.72 0.016 0  0.76 0.016 0  0.8 0.016 0  0.8400000000000001 0.016 0  0.8799999999999999 0.016 0  0.9199999999999999 0.016 0  0.96 0.016 0  1 0.016 0  -1 0.032 0  -0.96 0.032 0  -0.92 0.032 0  -0.88 0.032 0  -0.84 0.032 0  -0.8 0.032 0  -0.76 0.032 0  -0.72 0.032 0  -0.6799999999999999 0.032 0  -0.64 0.032 0  -0.6 0.032 0  -0.5600000000000001 0.032 0  -0.52 0.032 0  -0.48 0.032 0  -0.4399999999999999 0.032 0  -0.4 0.032 0  -0.36 0.032 0  -0.32 0.032 0  -0.28 0.032 0  -0.24 0.032 0  -0.2 0.032 0  -0.16 0.032 0  -0.12 0.032 0  -0.07999999999999996 0.032 0  -0.04000000000000004 0.032 0  0 0.032 0  0.04000000000000004 0.032 0  0.08000000000000007 0.032 0  0.1200000000000001 0.032 0  0.1599999999999999 0.032 0  0.2 0.032 0  0.24 0.032 0  0.28 0.032 0  0.3200000000000001 0.032 0  0.3600000000000001 0.032 0  0.3999999999999999 0.032 0  0.4399999999999999 0.032 0  0.48 0.032 0  0.52 0.032 0  0.5600000000000001 0.032 0  0.6000000000000001 0.032 0  0.6399999999999999 0.032 0  0.6799999999999999 0.032 0  0.72 0.032 0  0.76 0.032 0  0.8 0.032 0  0.8400000000000001 0.032 0  0.8799999999999999 0.032 0  0.9199999999999999 0.032 0  0.96 0.032 0  1 0.032 0  -1 0.04800000000000001 0  -0.96 0.04800000000000001 0  -0.92 0.04800000000000001 0  -0.88 0.04800000000000001 0  -0.84 0.04800000000000001 0  -0.8 0.04800000000000001 0  -0.76 0.04800000000000001 0  -0.72 0.04800000000000001 0  -0.6799999999999999 0.04800000000000001 0  -0.64 0.04800000000000001 0  -0.6 0.04800000000000001 0  -0.5600000000000001 0.04800000000000001 0  -0.52 0.04800000000000001 0  -0.48 0.04800000000000001 0  -0.4399999999999999 0.04800000000000001 0  -0.4 0.04800000000000001 0  -0.36 0.04800000000000001 0  -0.32 0.04800000000000001 0  -0.28 0.04800000000000001 0  -0.24 0.04800000000000001 0  -0.2 0.04800000000000001 0  -0.16 0.04800000000000001 0  -0.12 0.04800000000000001 0  -0.07999999999999996 0.04800000000000001 0  -0.04000000000000004 0.04800000000000001 0  0 0.04800000000000001 0  0.04000000000000004 0.04800000000000001 0  0.08000000000000007 0.04800000000000001 0  0.1200000000000001 0.04800000000000001 0  0.1599999999999999 0.04800000000000001 0  0.2 0.04800000000000001 0  0.24 0.04800000000000001 0  0.28 0.04800000000000001 0  0.3200000000000001 0.04800000000000001 0  0.3600000000000001 0.04800000000000001 0  0.3999999999999999 0.04800000000000001 0  0.4399999999999999 0.04800000000000001 0  0.48 0.04800000000000001 0  0.52 0.04800000000000001 0  0.5600000000000001 0.04800000000000001 0  0.6000000000000001 0.04800000000000001 0  0.6399999999999999 0.04800000000000001 0  0.6799999999999999 0.04800000000000001 0  0.72 0.04800000000000001 0  0.76 0.04800000000000001 0  0.8 0.04800000000000001 0  0.8400000000000001 0.04800000000000001 0  0.8799999999999999 0.04800000000000001 0  0.9199999999999999 0.04800000000000001 0  0.96 0.04800000000000001 0  1 0.04800000000000001 0  -1 0.064 0  -0.96 0.064 0  -0.92 0.064 0  -0.88 0.064 0  -0.84 0.064 0  -0.8 0.064 0  -0.76 0.064 0  -0.72 0.064 0  -0.6799999999999999 0.064 0  -0.64 0.064 0  -0.6 0.064 0  -0.5600000000000001 0.064 0  -0.52 0.064 0  -0.48 0.064 0  -0.4399999999999999 0.064 0  -0.4 0.064 0  -0.36 0.064 0  -0.32 0.064 0  -0.28 0.064 0  -0.24 0.064 0  -0.2 0.064 0  -0.16 0.064 0  -0.12 0.064 0  -0.07999999999999996 0.064 0  -0.04000000000000004 0.064 0  0 0.064 0  0.04000000000000004 0.064 0  0.08000000000000007 0.064 0  0.1200000000000001 0.064 0  0.1599999999999999 0.064 0  0.2 0.064 0  0.24 0.064 0  0.28 0.064 0  0.3200000000000001 0.064 0  0.3600000000000001 0.064 0  0.3999999999999999 0.064 0  0.4399999999999999 0.064 0  0.48 0.064 0  0.52 0.064 0  0.5600000000000001 0.064 0  0.6000000000000001 0.064 0  0.6399999999999999 0.064 0  0.6799999999999999 0.064 0  0.72 0.064 0  0.76 0.064 0  0.8 0.064 0  0.8400000000000001 0.064 0  0.8799999999999999 0.064 0  0.9199999999999999 0.064 0  0.96 0.064 0  1 0.064 0  -1 0.08 0  -0.96 0.08 0  -0.92 0.08 0  -0.88 0.08 0  -0.84 0.08 0  -0.8 0.08 0  -0.76 0.08 0  -0.72 0.08 0  -0.6799999999999999 0.08 0  -0.64 0.08 0  -0.6 0.08 0  -0.5600000000000001 0.08 0  -0.52 0.08 0  -0.48 0.08 0  -0.4399999999999999 0.08 0  -0.4 0.08 0  -0.36 0.08 0  -0.32 0.08 0  -0.28 0.08 0  -0.24 0.08 0  -0.2 0.08 0  -0.16 0.08 0  -0.12 0.08 0  -0.07999999999999996 0.08 0  -0.04000000000000004 0.08 0  0 0.08 0  0.04000000000000004 0.08 0  0.08000000000000007 0.08 0  0.1200000000000001 0.08 0  0.1599999999999999 0.08 0  0.2 0.08 0  0.24 0.08 0  0.28 0.08 0  0.3200000000000001 0.08 0  0.3600000000000001 0.08 0  0.3999999999999999 0.08 0  0.4399999999999999 0.08 0  0.48 0.08 0  0.52 0.08 0  0.5600000000000001 0.08 0  0.6000000000000001 0.08 0  0.6399999999999999 0.08 0  0.6799999999999999 0.08 0  0.72 0.08 0  0.76 0.08 0  0.8 0.08 0  0.8400000000000001 0.08 0  0.8799999999999999 0.08 0  0.9199999999999999 0.08 0  0.96 0.08 0  1 0.08 0  -1 0.09600000000000002 0  -0.96 0.09600000000000002 0  -0.92 0.09600000000000002 0  -0.88 0.09600000000000002 0  -0.84 0.09600000000000002 0  -0.8 0.09600000000000002 0  -0.76 0.09600000000000002 0  -0.72 0.09600000000000002 0  -0.6799999999999999 0.09600000000000002 0  -0.64 0.09600000000000002 0  -0.6 0.09600000000000002 0  -0.5600000000000001 0.09600000000000002 0  -0.52 0.09600000000000002 0  -0.48 0.09600000000000002 0  -0.4399999999999999 0.09600000000000002 0  -0.4 0.09600000000000002 0  -0.36 0.09600000000000002 0  -0.32 0.09600000000000002 0  -0.28 0.09600000000000002 0  -0.24 0.09600000000000002 0  -0.2 0.09600000000000002 0  -0.16 0.09600000000000002 0  -0.12 0.09600000000000002 0  -0.07999999999999996 0.09600000000000002 0  -0.04000000000000004 0.09600000000000002 0  0 0.09600000000000002 0  0.04000000000000004 0.09600000000000002 0  0.08000000000000007 0.09600000000000002 0  0.1200000000000001 0.09600000000000002 0  0.1599999999999999 0.09600000000000002 0  0.2 0.09600000000000002 0  0.24 0.09600000000000002 0  0.28 0.09600000000000002 0  0.3200000000000001 0.09600000000000002 0  0.3600000000000001 0.09600000000000002 0  0.3999999999999999 0.09600000000000002 0  0.4399999999999999 0.09600000000000002 0  0.48 0.09600000000000002 0  0.52 0.09600000000000002 0  0.5600000000000001 0.09600000000000002 0  0.6000000000000001 0.09600000000000002 0  0.6399999999999999 0.09600000000000002 0  0.6799999999999999 0.09600000000000002 0  0.72 0.09600000000000002 0  0.76 0.09600000000000002 0  0.8 0.09600000000000002 0  0.8400000000000001 0.09600000000000002 0  0.8799999999999999 0.09600000000000002 0  0.9199999999999999 0.09600000000000002 0  0.96 0.09600000000000002 0  1 0.09600000000000002 0  -1 0.112 0  -0.96 0.112 0  -0.92 0.112 0  -0.88 0.112 0  -0.84 0.112 0  -0.8 0.112 0  -0.76 0.112 0  -0.72 0.112 0  -0.6799999999999999 0.112 0  -0.64 0.112 0  -0.6 0.112 0  -0.5600000000000001 0.112 0  -0.52 0.112 0  -0.48 0.112 0  -0.4399999999999999 0.112 0  -0.4 0.112 0  -0.36 0.112 0  -0.32 0.112 0  -0.28 0.112 0  -0.24 0.112 0  -0.2 0.112 0  -0.16 0.112 0  -0.12 0.112 0  -0.07999999999999996 0.112 0  -0.04000000000000004 0.112 0  0 0.112 0  0.04000000000000004 0.112 0  0.08000000000000007 0.112 0  0.1200000000000001 0.112 0  0.1599999999999999 0.112 0  0.2 0.112 0  0.24 0.112 0  0.28 0.112 0  0.3200000000000001 0.112 0  0.3600000000000001 0.112 0  0.3999999999999999 0.112 0  0.4399999999999999 0.112 0  0.48 0.112 0  0.52 0.112 0  0.5600000000000001 0.112 0  0.6000000000000001 0.112 0  0.6399999999999999 0.112 0  0.6799999999999999 0.112 0  0.72 0.112 0  0.76 0.112 0  0.8 0.112 0  0.8400000000000001 0.112 0  0.8799999999999999 0.112 0  0.9199999999999999 0.112 0  0.96 0.112 0  1 0.112 0  -1 0.128 0  -0.96 0.128 0  -0.92 0.128 0  -0.88 0.128 0  -0.84 0.128 0  -0.8 0.128 0  -0.76 0.128 0  -0.72 0.128 0  -0.6799999999999999 0.128 0  -0.64 0.128 0  -0.6 0.128 0  -0.5600000000000001 0.128 0  -0.52 0.128 0  -0.48 0.128 0  -0.4399999999999999 0.128 0  -0.4 0.128 0  -0.36 0.128 0  -0.32 0.128 0  -0.28 0.128 0  -0.24 0.128 0  -0.2 0.128 0  -0.16 0.128 0  -0.12 0.128 0  -0.07999999999999996 0.128 0  -0.04000000000000004 0.128 0  0 0.128 0  0.04000000000000004 0.128 0  0.08000000000000007 0.128 0  0.1200000000000001 0.128 0  0.1599
[...]
<PointData  Scalars="f_100"> 
<DataArray  type="Float64"  Name="f_100"  format="ascii">6.0000000000000002e-05  5.4251288400155082e-05  5.2926219042135885e-05  5.2397071503129399e-05  5.2040100186761478e-05  5.1636109970302374e-05  5.1088617211091592e-05  5.0342985007973698e-05  4.9365408094290598e-05  4.8140307982612303e-05  4.6672249036652150e-05  4.4987219153966419e-05  4.3131290849968409e-05  4.1166219172538657e-05  3.9162493595915574e-05  3.7190770354669711e-05  3.5311067042621503e-05  3.3543424790478801e-05  3.1730353277626448e-05  2.5496212540305106e-05  1.8475939923987761e-05  1.5291964281266872e-05  1.3154467514877856e-05  1.1567445495044534e-05  1.0306949031392639e-05  9.2438597364147312e-06  8.2994041460495439e-06  7.4315568698804250e-06  6.6406911607019226e-06  6.0147517811061390e-06  5.9027725904623787e-06  7.7518328552559551e-06  1.0450703139598088e-05  1.0124583535786308e-05  8.8162608964602517e-06  7.2957653535641490e-06  5.8462252794224305e-06  4.5653219106905438e-06  3.4821980430926786e-06  2.5967016653652000e-06  1.8940244692045463e-06  1.3517595319819710e-06  9.4430626055973806e-07  6.4592656566546661e-07  4.3278985243260492e-07  2.8415774797081332e-07  1.8285734555411171e-07  1.1516978801573101e-07  7.0061584359624827e-08  3.6907717574989345e-08  0.0000000000000000e+00  6.0000000000000002e-05  5.4525442692259190e-05  5.3193541513474439e-05  5.2661104335115230e-05  5.2302581772409491e-05  5.1897226703647481e-05  5.1347917176432941e-05  5.0599665305654563e-05  4.9618421795703892e-05  4.8388438495906311e-05  4.6914196853797116e-05  4.5221707828527148e-05  4.3357182607290940e-05  4.1382623510523395e-05  3.9368851456995222e-05  3.7386901501981508e-05  3.5497185309987308e-05  3.3720301868685263e-05  3.1883571714416138e-05  2.6166382888438298e-05  1.9399643131143361e-05  1.6055879786760948e-05  1.3801581555205472e-05  1.2130649139794512e-05  1.0806176122885327e-05  9.6913543225132962e-06  8.7025053414558544e-06  7.7943516413069593e-06  6.9650002670469947e-06  6.3003180977746222e-06  6.1459307395641601e-06  7.8388249116083362e-06  1.0502128066461446e-05  1.0182584718755556e-05  8.8686306404239869e-06  7.3401192991646963e-06  5.8824619662909519e-06  4.5941301094711278e-06  3.5045506201063800e-06  2.6136477023992628e-06  1.9065837772948867e-06  1.3608623683813438e-06  9.5076054505995446e-07  6.5040510183469425e-07  4.3583221316397381e-07  2.8618196861419341e-07  1.8417711956278309e-07  1.1601380965250190e-07  7.0593106629240265e-08  3.7245653275900932e-08  0.0000000000000000e+00  6.0000000000000002e-05  5.4795549643648114e-05  5.3460042071050108e-05  5.2925778814934465e-05  5.2566164280656466e-05  5.2159586078429548e-05  5.1608499280253091e-05  5.0857632387268349e-05  4.9872712775542832e-05  4.8637828662884109e-05  4.7157380144016339e-05  4.5457401642757812e-05  4.3584243367790738e-05  4.1600155595298325e-05  3.9576291950441404e-05  3.7584069463498767e-05  3.5684310474327799e-05  3.3898301304315807e-05  3.2042105247366719e-05  2.6778631054507054e-05  2.0316135965935844e-05  1.6818203926412510e-05  1.4454197128102088e-05  1.2702791947355982e-05  1.1316138989275985e-05  1.0150517978038135e-05  9.1176531400102269e-06  8.1691367752786564e-06  7.3008120864974045e-06  6.5962521111683964e-06  6.3958202799827914e-06  7.9474191416867584e-06  1.0562229378427515e-05  1.0243696132157405e-05  8.9221760150061832e-06  7.3850089089913413e-06  5.9190076361558945e-06  4.6231503847269564e-06  3.5270611132094894e-06  2.6307139919227095e-06  1.9192342398123380e-06  1.3700332511622227e-06  9.5726465196526934e-07  6.5491936787376131e-07  4.3889966239405422e-07  2.8822344003775851e-07  1.8550851520249825e-07  1.1686550827539174e-07  7.1129498863960141e-08  3.7584770165436428e-08  0.0000000000000000e+00  6.0000000000000002e-05  5.5060813182752138e-05  5.3725680187079998e-05  5.3191088413366647e-05  5.2830850623247960e-05  5.2423194176794777e-05  5.1870370823172817e-05  5.1116894138561263e-05  5.0128289247559998e-05  4.8888486846280043e-05  4.7401807232080770e-05  4.5694308677948287e-05  4.3812480763414579e-05  4.1818822430388784e-05  3.9784821319898259e-05  3.7782279611367004e-05  3.5872446600467658e-05  3.4077414734801351e-05  3.2205616270345431e-05  2.7340940049465918e-05  2.1202004144247247e-05  1.7574730192546833e-05  1.5110503630285031e-05  1.3282953631664930e-05  1.1836416240413539e-05  1.0621243571291289e-05  9.5449482578555167e-06  8.5561538721566264e-06  7.6484719142709617e-06  6.9030174732639253e-06  6.6535960927272082e-06  8.0751043880205255e-06  1.0631144840978519e-05  1.0307967117939263e-05  8.9769160134747500e-06  7.4304403524318944e-06  5.9558640806392187e-06  4.6523829264924241e-06  3.5497290626850005e-06  2.6478998020994891e-06  1.9319750367362520e-06  1.3792713762826890e-06  9.6381785335076297e-07  6.5946874228432207e-07  4.4199169419125930e-07  2.9028176675112211e-07  1.8685123336888842e-07  1.1772466065852336e-07  7.1670584786142058e-08  3.7924855157806533e-08  0.0000000000000000e+00  6.0000000000000002e-05  5.5320675012615430e-05  5.3990431536163896e-05  5.3457030680377191e-05  5.3096644938409997e-05  5.2688057377999902e-05  5.2133539069596697e-05  5.1377458264981145e-05  5.0385159168405703e-05  4.9140421110076314e-05  4.7647486132461752e-05  4.5932436724496363e-05  4.4041902184843482e-05  4.2038630853215044e-05  3.9994445735163274e-05  3.7981537343727349e-05  3.6061597882169641e-05  3.4257637160963219e-05  3.2373765731751108e-05  2.7860370356944624e-05  2.2045942961694818e-05  1.8322456549583469e-05  1.5768960781919273e-05  1.3870345198520386e-05  1.2366668052315894e-05  1.1103480610893572e-05  9.9845329677294687e-06  8.9556747371795945e-06  8.0083416145467297e-06  7.2210651583199458e-06  6.9202257972925547e-06  8.2200787046837099e-06  1.0708978333746536e-05  1.0375434593969012e-05  9.0328646167054064e-06  7.4764183498077345e-06  5.9930328202506905e-06  4.6818280330290525e-06  3.5725542355100688e-06  2.6652046546892964e-06  1.9448055920201051e-06  1.3885761578269578e-06  9.7041960672640913e-07  6.6405275484803981e-07  4.4510792163376426e-07  2.9235664386191108e-07  1.8820504202487003e-07  1.1859109270328691e-07  7.2216226688784775e-08  3.8265767249314521e-08  0.0000000000000000e+00  6.0000000000000002e-05  5.5574771301194476e-05  5.4254285886019521e-05  5.3723607026938800e-05  5.3363552538396531e-05  5.2954182361832932e-05  5.2398011275773882e-05  5.1639332334388841e-05  5.0643330290552852e-05  4.9393639278816549e-05  4.7894424610483241e-05  4.6171793339659546e-05  4.4272514830531863e-05  4.2259587570826469e-05  4.0205171311329419e-05  3.8181848084469330e-05  3.6251768607542570e-05  3.4438965969549247e-05  3.2546221857089045e-05  2.8343082822836533e-05  2.2843687667767342e-05  1.9058993481581560e-05  1.6428212401042178e-05  1.4464270595855436e-05  1.2906614155643071e-05  1.1597222769974147e-05  1.0436585053374400e-05  9.3680003512152870e-06  8.3808043819092585e-06  7.5508501487692762e-06  7.1965448299274803e-06  8.3810580576851513e-06  1.0795800237456508e-05  1.0446123322093908e-05  9.0900310473059016e-06  7.5229462378784811e-06  6.0305150955637872e-06  4.7114860753345671e-06  3.5955365808480721e-06  2.6826282791366571e-06  1.9577255302053758e-06  1.3979471893098681e-06  9.7706952208249562e-07  6.6867105966485363e-07  4.4824805553462257e-07  2.9444784083197100e-07  1.8956976414253602e-07  1.1946467059451343e-07  7.2766318603709227e-08  3.8607423726520218e-08  0.0000000000000000e+00  6.0000000000000002e-05  5.5822896741096643e-05  5.4517245613207154e-05  5.3990822547996224e-05  5.3631579866037161e-05  5.3221576111389379e-05  5.2663794712937039e-05  5.1902523812279032e-05  5.0902810205920659e-05  4.9648148986467562e-05  4.8142630232664376e-05  4.6412385895059440e-05  4.4504325747001163e-05  4.2481699189212355e-05  4.0417004124428978e-05  3.8383217282986351e-05  3.6442963132522271e-05  3.4621400152080145e-05  3.2722666215934642e-05  2.8794407964734690e-05  2.3594976483382365e-05  1.9782388780587728e-05  1.7087060192316220e-05  1.5064112756278662e-05  1.3456025941216831e-05  1.2102503943537447e-05  1.0901316687973720e-05  9.7934620763826645e-06  8.7662688822138443e-06  7.8928416865431741e-06  7.4832965128753866e-06  8.5571387780484279e-06  1.0891648904288833e-05  1.0520046112980550e-05  9.1484199813969373e-06  7.5700260238255526e-06  6.0683118599214608e-06  4.7413574679147617e-06  3.6186761934291794e-06  2.7001705748252390e-06  1.9707346407751668e-06  1.4073842119037201e-06  9.8376733484587811e-07  6.7332341303925478e-07  4.5141188700148247e-07  2.9655518816812621e-07  1.9094526782830752e-07  1.2034529356083834e-07  7.3320780714810847e-08  3.8949788847681139e-08  0.0000000000000000e+00  6.0000000000000002e-05  5.6064974774663348e-05  5.4779324660931357e-05  5.4258685874462939e-05  5.3900734457730184e-05  5.3490245915013109e-05  5.2930896686288951e-05  5.2167040090799262e-05  5.1163606381828997e-05  4.9903957716675001e-05  4.8392110408169274e-05  4.6654221615763343e-05  4.4737341861953861e-05  4.2704972237349977e-05  4.0629950224224541e-05  3.8585650413957851e-05  3.6635185860597648e-05  3.4804939688605365e-05  3.2902797712911573e-05  2.9218934788860258e-05  2.4301739840920539e-05  2.0491102742182489e-05  1.7744461105595189e-05  1.5669331979897570e-05  1.4014726070909161e-05  1.2619398914302945e-05  1.1378975993203340e-05  1.0232424080424263e-05  9.1651730248876705e-06  8.2475300086022911e-06  7.7811618118107416e-06  8.7476985609889457e-06  1.0996532645226707e-05  1.0597203983921011e-05  9.2080317282163242e-06  7.6176584309153530e-06  6.1064237737781872e-06  4.7714426448260764e-06  3.6419732834552385e-06  2.7178315800551802e-06  1.9838328488696061e-06  1.4168870883496661e-06  9.9051288368682590e-07  6.7800965534263424e-07  4.5459927313953043e-07  2.9867856651716085e-07  1.9233145823588536e-07  1.2123288794803345e-07  7.3879554786702622e-08  3.9292864573302044e-08  0.0000000000000000e+00  6.0000000000000002e-05  5.6301032975391469e-05  5.5040547801450551e-05  5.4527209045161608e-05  5.4171024910848470e-05  5.3760199367265285e-05  5.3199324550477452e-05  5.2432888512631161e-05  5.1425726190627830e-05  5.0161072835932824e-05  4.8642872422941336e-05  4.6897307612443752e-05  4.4971570011493925e-05  4.2929413186941105e-05  4.0844015644674572e-05  3.8789152977175202e-05  3.6828441227378100e-05  3.4989585068890159e-05  3.3086334980681101e-05  2.9620603987903644e-05  2.4967029052442157e-05  2.1184018789499124e-05  1.8399533549153451e-05  1.6279470532314986e-05  1.4582592090008289e-05  1.3148026542597393e-05  1.1869850095932247e-05  1.0685286461380755e-05  9.5779875516276335e-06  8.6154312328349444e-06  8.0907818799678212e-06  8.9523251365418745e-06  1.1110431865946125e-05  1.0677586284249820e-05  9.2688623858897824e-06  7.6658429384037553e-06  6.1448512007376770e-06  4.8017420401631599e-06  3.6654281519037365e-06  2.7356114465566856e-06  1.9970201912303716e-06  1.4264557815370060e-06  9.9730609230617746e-07  6.8272969613640384e-07  4.5781012533080107e-07  3.0081789773041648e-07  1.9372827094308828e-07  1.2212740236688670e-07  7.4442600421484063e-08  3.9636682993744054e-08  0.0000000000000000e+00  6.0000000000000002e-05  5.6531182740274171e-05  5.5300950100899657e-05  5.4796407391870457e-05  5.4442460853943479e-05  5.4031444368827825e-05  5.3469085722092977e-05  5.2700076390612952e-05  5.1689176934110354e-05  5.0419501620918136e-05  4.8894923467820133e-05  4.7141650907848943e-05  4.5207016962509931e-05  4.3155028468616620e-05  4.1059206412503322e-05  3.8993730497422966e-05  3.7022733688929407e-05  3.5175336927203003e-05  3.3273017562175053e-05  3.0002797446391386e-05  2.5594390391849462e-05  2.1860446772020137e-05  1.9051566339107898e-05  1.6894160234349916e-05  1.5159562166305199e-05  1.3688554367548632e-05  1.2374269056793301e-05  1.1152488808322573e-05  1.0005219568866044e-05  8.9970913333705799e-06  8.4127754824357823e-06  9.1707648321489540e-06  1.1233301118276309e-05  1.0761170801115602e-05  9.3309039802110369e-06  7.7145778177263131e-06  6.1835942053109217e-06  4.8322560723038436e-06  3.6890411703025354e-06  2.7535104185632340e-06  2.0102967964432882e-06  1.4360903369153239e-06  1.0041469544884252e-06  6.8748350196905859e-07  4.6104439962504263e-07  3.0297313754183132e-07  1.9513566652725216e-07  1.2302880372042541e-07  7.5009891990948818e-08  3.9981300161722593e-08  0.0000000000000000e+00  6.0000000000000002e-05  5.6755602584811206e-05  5.5560576511550104e-05  5.5066299432315237e-05  5.4715052918469134e-05  5.4303989125279809e-05  5.3740187689634244e-05  5.2968611023829059e-05  5.1953965863623431e-05  5.0679251281022439e-05  4.9148270661709026e-05  4.7387258458599289e-05  4.5443689431088003e-05  4.3381824485248463e-05  4.1275528554226381e-05  3.9199388524422807e-05  3.7218067713061580e-05  3.5362195770214368e-05  3.3462606191193073e-05  3.0368420141093243e-05  2.6187506942540922e-05  2.2520108392913725e-05  1.9700027620241053e-05  1.7513131300785206e-05  1.5745641941104294e-05  1.4241204020373087e-05  1.2892610337374414e-05  1.1634514063073717e-05  1.0447416108008559e-05  9.3930897260938505e-06  8.7477527472308700e-06  9.4028854582030776e-06  1.1365070926011709e-05  1.0847923856421202e-05  9.3941445920374926e-06  7.7638601665996841e-06  6.2226525523936530e-06  4.8629851313386465e-06  3.7128127642093620e-06  2.7715288156405590e-06  2.0236628687135941e-06  1.4457908680534941e-06  1.0110355218342672e-06  6.9227108636570379e-07  4.6430208886098586e-07  3.0514426956750061e-07  1.9655362612183780e-07  1.2393707395064872e-07  7.5581416119725666e-08  4.0326791087232162e-08  0.0000000000000000e+00  6.0000000000000002e-05  5.6974524447449031e-05  5.5819481537390978e-05  5.5336906767202137e-05  5.4988812711017681e-05  5.4577842144711628e-05  5.4012638021314231e-05  5.3238499710767172e-05  5.2220100196628919e-05  5.0940328976928520e-05  4.9402921070672938e-05  4.7634137173143292e-05  4.5681594097667449e-05  4.3609807622892799e-05  4.1492988101918268e-05  3.9406132632843919e-05  3.7414447772949386e-05  3.5550161780540506e-05  3.3654882414933197e-05  3.0719972925258717e-05  2.6750000858250116e-05  2.3163106922209905e-05  2.0344572386705006e-05  1.8136221472327603e-05  1.6340911934339491e-05  1.4806257122381948e-05  1.3425303626247909e-05  1.2131892613089313e-05  1.0905167766945970e-05  9.8040427472933095e-06  9.0963262633373823e-06  9.6486495263206762e-06  1.1505649305181652e-05  1.0937800403970806e-05  9.4585684778873257e-06  7.8136859423198357e-06  6.2620257084435048e-06  4.8939295692070825e-06  3.7367433997637638e-06  2.7896670186096610e-06  2.0371186745445170e-06  1.4555575447819830e-06  1.0179718936911008e-06  6.9709250161495288e-07  4.6758321620541489e-07  3.0733130038746441e-07  1.9798214777617142e-07  1.2485220737387968e-07  7.6157169617811342e-08  4.0673245693696027e-08  0.0000000000000000e+00  6.0000000000000002e-05  5.7188222506632811e-05  5.6077728934773428e-05  5.5608253978332736e-05  5.5263752785279312e-05  5.4853012234160508e-05  5.4286444371017679e-05  5.3509749760038633e-05  5.2487587130337249e-05  5.1202741835932434e-05  4.9658881723690084e-05  4.7882293926559666e-05  4.5920737619524150e-05  4.3838984259794229e-05  4.1711591097955753e-05  3.9613968422381337e-05  3.7611878342617297e-05  3.5739234681167773e-05  3.3849647748009501e-05  3.1059616023743357e-05  2.7285331183295544e-05  2.3789887071390168e-05  2.0985047931004268e-05  1.8763384918737519e-05  1.6945535191117617e-05  1.5384061484696363e-05  1.3972835924546955e-05  1.2645206578314269e-05  1.1379112465750194e-05  1.0230607175150261e-05  9.4591202583259503e-06  9.9080949382197332e-06  1.1654922939149547e-05  1.1030744134332361e-05  9.5241561874795424e-06  7.8640499952665255e-06  6.3017128443232978e-06  4.9250896921417899e-06  3.7608335727893041e-06  2.8079254580189296e-06  2.0506645318015899e-06  1.4653905834553194e-06  1.0249562088860283e-06  7.0194783202892795e-07  4.7088782985361531e-07  3.0953425551353513e-07  1.9942124347239396e-07  1.2577420849752832e-07  7.6737157779657281e-08  4.1020765568374707e-08  0.0000000000000000e+00  6.0000000000000002e-05  5.7397004094476426e-05  5.6335391421800668e-05  5.5880368525559814e-05  5.5539886613115991e-05  5.5129508494867632e-05  5.4561614482670898e-05  5.3782368499072789e-05  5.2756433852925978e-05  5.1466496964587631e-05  4.9916159625653889e-05  4.8131735572769955e-05  4.6161126641062960e-05  4.4069360773803235e-05  4.1931343598927856e-05  3.9822901517901664e-05  3.7810363893934563e-05  3.5929413648383803e-05  3.4046722503622020e-05  3.1389223769048694e-05  2.7796748090517321e-05  2.4401190865080602e-05  2.1621496994889533e-05  1.9394700638794152e-05  1.7559764990749806e-05  1.5975037503889549e-05  1.4535756834064651e-05  1.3175094271037220e-05  1.1869939335930522e-05  1.0673483870679321e-05  9.8367783902262020e-06  1.0181321089819719e-05  1.1812757994712534e-05  1.1126687593669783e-05  9.5908846812567202e-06  7.9149461033986064e-06  6.3417128397665634e-06  4.9564657550866823e-06  3.7850838000144411e-06  2.8263046047164655e-06  2.0643008007368888e-06  1.4752902389540531e-06  1.0319886389365426e-06  7.0683718841014263e-07  4.7421599868079453e-07  3.1175317608226787e-07  2.0087093668000512e-07  1.2670309023043222e-07  7.7321392982200401e-08  4.1369461368462816e-08  0.0000000000000000e+00  6.0000000000000002e-05  5.7601202358789162e-05  5.6592550379034864e-05  5.6153280640894532e-05  5.5817228554284959e-05  5.5407340316369066e-05  5.4838156193243336e-05  5.4056363281125395e-05  5.3026647552766790e-05  5.1731601459146563e-05  5.0174761768116290e-05  4.8382468954626493e-05  4.6402767802314641e-05  4.4300943548496245e-05  4.2152251678868371e-05  4.0032937569654176e-05  3.8009908894852326e-05  3.6120697262937587e-05  3.4245944412287775e-05  3.1710431437713930e-05  2.8287279961664459e-05  2.4998014027472126e-05  2.2254158715345063e-05  2.0030380230009675e-05  1.8183952514536590e-05  1.6579684689709150e-05  1.5114684013151722e-05  1.3722254815667359e-05  1.2378392753886374e-05  1.1133421575814637e-05  1.0229970549801004e-05  1.0468478912743527e-05  1.1979000581331981e-05  1.1225552321817238e-05  9.6587274503442297e-06  7.9663670083411301e-06  6.3820242894136523e-06  4.9880579578091422e-06  3.8094946120550521e-06  2.8448049621525513e-06  2.0780278766226998e-06  1.4852567981131104e-06  1.0390693824719227e-06  7.1176070350660074e-07  4.7756780867174689e-07  3.1398811614106155e-07  2.0233126034991344e-07  1.2763887241477857e-07  7.7909893526621423e-08  4.1719450767835892e-08  0.0000000000000000e+00  6.0000000000000002e-05  5.7801170381938285e-05  5.6849295530614856e-05  5.6427023218504993e-05  5.6095793824467353e-05  5.5686517369442774e-05  5.5116077434565750e-05  5.4331741490882880e-05  5.3298235426010735e-05  5.1998062414192391e-05  5.0434695138177562e-05  4.8634500912258574e-05  4.6645667745962756e-05  4.4533738978235533e-05  4.2374321431938173e-05  4.0244082253544616e-05  3.8210517808678587e-05  3.6313083490972175e-05  3.4447167110494927e-05  3.2024675161749666e-05  2.8759739164492685e-05  2.5581565896105622e-05  2.2883467683610481e-05  2.0670774992984735e-05  1.8818554412997375e-05  1.7198588284464921e-05  1.5710308777604079e-05  1.4287452919168643e-05  1.2905276523609294e-05  1.1611220886555999e-05  1.0639398971210955e-05  1.0769763789479417e-05  1.2153476864987326e-05  1.1327249014133078e-05  9.7276546409072179e-06  8.0183044535147012e-06  6.4226455103607304e-06  5.0198664424706217e-06  3.8340665478628235e-06  2.8634270601069564e-06  2.0918461837059117e-06  1.4952905743189100e-06  1.0461986606457926e-06  7.1671852827539406e-07  4.8094335998687880e-07  3.1623914041900929e-07  2.0380225526750236e-07  1.2858158062056097e-07  7.8502682678691617e-08  4.2070856848891980e-08  0.0000000000000000e+00  6.0000000000000002e-05  5.7997276512533682e-05  5.7105724599582534e-05  5.6701631699686691e-05  5.6375598461355730e-05  5.5967049597942765e-05  5.5395386234121834e-05  5.4608510548897033e-05  5.3571204682821120e-05  5.2265886929784907e-05  5.0695966725856750e-05  4.8887838289992572e-05  4.6889833123168487e-05  4.476775347236428