<?xml version="1.0"?>
<VTKFile type="UnstructuredGrid"  version="0.1"  >
<UnstructuredGrid>
<Piece  NumberOfPoints="2601" NumberOfCells="5000">
<Points>
<DataArray  type="Float64"  NumberOfComponents="3"  format="ascii">-1 0 0  -0.96 0 0  -0.92 0 0  -0.88 0 0  -0.84 0 0  -0.8 0 0  -0.76 0 0  -0.72 0 0  -0.6799999999999999 0 0  -0.64 0 0  -0.6 0 0  -0.5600000000000001 0 0  -0.52 0 0  -0.48 0 0  -0.4399999999999999 0 0  -0.4 0 0  -0.36 0 0  -0.32 0 0  -0.28 0 0  -0.24 0 0  -0.2 0 0  -0.16 0 0  -0.12 0 0  -0.07999999999999996 0 0  -0.04000000000000004 0 0  0 0 0  0.04000000000000004 0 0  0.08000000000000007 0 0  0.1200000000000001 0 0  0.1599999999999999 0 0  0.2 0 0  0.24 0 0  0.28 0 0  0.3200000000000001 0 0  0.3600000000000001 0 0  0.3999999999999999 0 0  0.4399999999999999 0 0  0.48 0 0  0.52 0 0  0.5600000000000001 0 0  0.6000000000000001 0 0  0.6399999999999999 0 0  0.6799999999999999 0 0  0.72 0 0  0.76 0 0  0.8 0 0  0.8400000000000001 0 0  0.8799999999999999 0 0  0.9199999999999999 0 0  0.96 0 0  1 0 0  -1 0.016 0  -0.96 0.016 0  -0.92 0.016 0  -0.88 0.016 0  -0.84 0.016 0  -0.8 0.016 0  -0.76 0.016 0  -0.72 0.016 0  -0.6799999999999999 0.016 0  -0.64 0.016 0  -0.6 0.016 0  -0.5600000000000001 0.016 0  -0.52 0.016 0  -0.48 0.016 0  -0.4399999999999999 0.016 0  -0.4 0.016 0  -0.36 0.016 0  -0.32 0.016 0  -0.28 0.016 0  -0.24 0.016 0  -0.2 0.016 0  -0.16 0.016 0  -0.12 0.016 0  -0.07999999999999996 0.016 0  -0.04000000000000004 0.016 0  0 0.016 0  0.04000000000000004 0.016 0  0.08000000000000007 0.016 0  0.1200000000000001 0.016 0  0.1599999999999999 0.016 0  0.2 0.016 0  0.24 0.016 0  0.28 0.016 0  0.3200000000000001 0.016 0  0.3600000000000001 0.016 0  0.3999999999999999 0.016 0  0.4399999999999999 0.016 0  0.48 0.016 0  0.52 0.016 0  0.5600000000000001 0.016 0  0.6000000000000001 0.016 0  0.6399999999999999 0.016 0  0.6799999999999999 0.016 0  0.72 0.016 0  0.76 0.016 0  0.8 0.016 0  0.8400000000000001 0.016 0  0.8799999999999999 0.016 0  0.9199999999999999 0.016 0  0.96 0.016 0  1 0.016 0  -1 0.032 0  -0.96 0.032 0  -0.92 0.032 0  -0.88 0.032 0  -0.84 0.032 0  -0.8 0.032 0  -0.76 0.032 0  -0.72 0.032 0  -0.6799999999999999 0.032 0  -0.64 0.032 0  -0.6 0.032 0  -0.5600000000000001 0.032 0  -0.52 0.032 0  -0.48 0.032 0  -0.4399999999999999 0.032 0  -0.4 0.032 0  -0.36 0.032 0  -0.32 0.032 0  -0.28 0.032 0  -0.24 0.032 0  -0.2 0.032 0  -0.16 0.032 0  -0.12 0.032 0  -0.07999999999999996 0.032 0  -0.04000000000000004 0.032 0  0 0.032 0  0.04000000000000004 0.032 0  0.08000000000000007 0.032 0  0.1200000000000001 0.032 0  0.1599999999999999 0.032 0  0.2 0.032 0  0.24 0.032 0  0.28 0.032 0  0.3200000000000001 0.032 0  0.3600000000000001 0.032 0  0.3999999999999999 0.032 0  0.4399999999999999 0.032 0  0.48 0.032 0  0.52 0.032 0  0.5600000000000001 0.032 0  0.6000000000000001 0.032 0  0.6399999999999999 0.032 0  0.6799999999999999 0.032 0  0.72 0.032 0  0.76 0.032 0  0.8 0.032 0  0.8400000000000001 0.032 0  0.8799999999999999 0.032 0  0.9199999999999999 0.032 0  0.96 0.032 0  1 0.032 0  -1 0.04800000000000001 0  -0.96 0.04800000000000001 0  -0.92 0.04800000000000001 0  -0.88 0.04800000000000001 0  -0.84 0.04800000000000001 0  -0.8 0.04800000000000001 0  -0.76 0.04800000000000001 0  -0.72 0.04800000000000001 0  -0.6799999999999999 0.04800000000000001 0  -0.64 0.04800000000000001 0  -0.6 0.04800000000000001 0  -0.5600000000000001 0.04800000000000001 0  -0.52 0.04800000000000001 0  -0.48 0.04800000000000001 0  -0.4399999999999999 0.04800000000000001 0  -0.4 0.04800000000000001 0  -0.36 0.04800000000000001 0  -0.32 0.04800000000000001 0  -0.28 0.04800000000000001 0  -0.24 0.04800000000000001 0  -0.2 0.04800000000000001 0  -0.16 0.04800000000000001 0  -0.12 0.04800000000000001 0  -0.07999999999999996 0.04800000000000001 0  -0.04000000000000004 0.04800000000000001 0  0 0.04800000000000001 0  0.04000000000000004 0.04800000000000001 0  0.08000000000000007 0.04800000000000001 0  0.1200000000000001 0.04800000000000001 0  0.1599999999999999 0.04800000000000001 0  0.2 0.04800000000000001 0  0.24 0.04800000000000001 0  0.28 0.04800000000000001 0  0.3200000000000001 0.04800000000000001 0  0.3600000000000001 0.04800000000000001 0  0.3999999999999999 0.04800000000000001 0  0.4399999999999999 0.04800000000000001 0  0.48 0.04800000000000001 0  0.52 0.04800000000000001 0  0.5600000000000001 0.04800000000000001 0  0.6000000000000001 0.04800000000000001 0  0.6399999999999999 0.04800000000000001 0  0.6799999999999999 0.04800000000000001 0  0.72 0.04800000000000001 0  0.76 0.04800000000000001 0  0.8 0.04800000000000001 0  0.8400000000000001 0.04800000000000001 0  0.8799999999999999 0.04800000000000001 0  0.9199999999999999 0.04800000000000001 0  0.96 0.04800000000000001 0  1 0.04800000000000001 0  -1 0.064 0  -0.96 0.064 0  -0.92 0.064 0  -0.88 0.064 0  -0.84 0.064 0  -0.8 0.064 0  -0.76 0.064 0  -0.72 0.064 0  -0.6799999999999999 0.064 0  -0.64 0.064 0  -0.6 0.064 0  -0.5600000000000001 0.064 0  -0.52 0.064 0  -0.48 0.064 0  -0.4399999999999999 0.064 0  -0.4 0.064 0  -0.36 0.064 0  -0.32 0.064 0  -0.28 0.064 0  -0.24 0.064 0  -0.2 0.064 0  -0.16 0.064 0  -0.12 0.064 0  -0.07999999999999996 0.064 0  -0.04000000000000004 0.064 0  0 0.064 0  0.04000000000000004 0.064 0  0.08000000000000007 0.064 0  0.1200000000000001 0.064 0  0.1599999999999999 0.064 0  0.2 0.064 0  0.24 0.064 0  0.28 0.064 0  0.3200000000000001 0.064 0  0.3600000000000001 0.064 0  0.3999999999999999 0.064 0  0.4399999999999999 0.064 0  0.48 0.064 0  0.52 0.064 0  0.5600000000000001 0.064 0  0.6000000000000001 0.064 0  0.6399999999999999 0.064 0  0.6799999999999999 0.064 0  0.72 0.064 0  0.76 0.064 0  0.8 0.064 0  0.8400000000000001 0.064 0  0.8799999999999999 0.064 0  0.9199999999999999 0.064 0  0.96 0.064 0  1 0.064 0  -1 0.08 0  -0.96 0.08 0  -0.92 0.08 0  -0.88 0.08 0  -0.84 0.08 0  -0.8 0.08 0  -0.76 0.08 0  -0.72 0.08 0  -0.6799999999999999 0.08 0  -0.64 0.08 0  -0.6 0.08 0  -0.5600000000000001 0.08 0  -0.52 0.08 0  -0.48 0.08 0  -0.4399999999999999 0.08 0  -0.4 0.08 0  -0.36 0.08 0  -0.32 0.08 0  -0.28 0.08 0  -0.24 0.08 0  -0.2 0.08 0  -0.16 0.08 0  -0.12 0.08 0  -0.07999999999999996 0.08 0  -0.04000000000000004 0.08 0  0 0.08 0  0.04000000000000004 0.08 0  0.08000000000000007 0.08 0  0.1200000000000001 0.08 0  0.1599999999999999 0.08 0  0.2 0.08 0  0.24 0.08 0  0.28 0.08 0  0.3200000000000001 0.08 0  0.3600000000000001 0.08 0  0.3999999999999999 0.08 0  0.4399999999999999 0.08 0  0.48 0.08 0  0.52 0.08 0  0.5600000000000001 0.08 0  0.6000000000000001 0.08 0  0.6399999999999999 0.08 0  0.6799999999999999 0.08 0  0.72 0.08 0  0.76 0.08 0  0.8 0.08 0  0.8400000000000001 0.08 0  0.8799999999999999 0.08 0  0.9199999999999999 0.08 0  0.96 0.08 0  1 0.08 0  -1 0.09600000000000002 0  -0.96 0.09600000000000002 0  -0.92 0.09600000000000002 0  -0.88 0.09600000000000002 0  -0.84 0.09600000000000002 0  -0.8 0.09600000000000002 0  -0.76 0.09600000000000002 0  -0.72 0.09600000000000002 0  -0.6799999999999999 0.09600000000000002 0  -0.64 0.09600000000000002 0  -0.6 0.09600000000000002 0  -0.5600000000000001 0.09600000000000002 0  -0.52 0.09600000000000002 0  -0.48 0.09600000000000002 0  -0.4399999999999999 0.09600000000000002 0  -0.4 0.09600000000000002 0  -0.36 0.09600000000000002 0  -0.32 0.09600000000000002 0  -0.28 0.09600000000000002 0  -0.24 0.09600000000000002 0  -0.2 0.09600000000000002 0  -0.16 0.09600000000000002 0  -0.12 0.09600000000000002 0  -0.07999999999999996 0.09600000000000002 0  -0.04000000000000004 0.09600000000000002 0  0 0.09600000000000002 0  0.04000000000000004 0.09600000000000002 0  0.08000000000000007 0.09600000000000002 0  0.1200000000000001 0.09600000000000002 0  0.1599999999999999 0.09600000000000002 0  0.2 0.09600000000000002 0  0.24 0.09600000000000002 0  0.28 0.09600000000000002 0  0.3200000000000001 0.09600000000000002 0  0.3600000000000001 0.09600000000000002 0  0.3999999999999999 0.09600000000000002 0  0.4399999999999999 0.09600000000000002 0  0.48 0.09600000000000002 0  0.52 0.09600000000000002 0  0.5600000000000001 0.09600000000000002 0  0.6000000000000001 0.09600000000000002 0  0.6399999999999999 0.09600000000000002 0  0.6799999999999999 0.09600000000000002 0  0.72 0.09600000000000002 0  0.76 0.09600000000000002 0  0.8 0.09600000000000002 0  0.8400000000000001 0.09600000000000002 0  0.8799999999999999 0.09600000000000002 0  0.9199999999999999 0.09600000000000002 0  0.96 0.09600000000000002 0  1 0.09600000000000002 0  -1 0.112 0  -0.96 0.112 0  -0.92 0.112 0  -0.88 0.112 0  -0.84 0.112 0  -0.8 0.112 0  -0.76 0.112 0  -0.72 0.112 0  -0.6799999999999999 0.112 0  -0.64 0.112 0  -0.6 0.112 0  -0.5600000000000001 0.112 0  -0.52 0.112 0  -0.48 0.112 0  -0.4399999999999999 0.112 0  -0.4 0.112 0  -0.36 0.112 0  -0.32 0.112 0  -0.28 0.112 0  -0.24 0.112 0  -0.2 0.112 0  -0.16 0.112 0  -0.12 0.112 0  -0.07999999999999996 0.112 0  -0.04000000000000004 0.112 0  0 0.112 0  0.04000000000000004 0.112 0  0.08000000000000007 0.112 0  0.1200000000000001 0.112 0  0.1599999999999999 0.112 0  0.2 0.112 0  0.24 0.112 0  0.28 0.112 0  0.3200000000000001 0.112 0  0.3600000000000001 0.112 0  0.3999999999999999 0.112 0  0.4399999999999999 0.112 0  0.48 0.112 0  0.52 0.112 0  0.5600000000000001 0.112 0  0.6000000000000001 0.112 0  0.6399999999999999 0.112 0  0.6799999999999999 0.112 0  0.72 0.112 0  0.76 0.112 0  0.8 0.112 0  0.8400000000000001 0.112 0  0.8799999999999999 0.112 0  0.9199999999999999 0.112 0  0.96 0.112 0  1 0.112 0  -1 0.128 0  -0.96 0.128 0  -0.92 0.128 0  -0.88 0.128 0  -0.84 0.128 0  -0.8 0.128 0  -0.76 0.128 0  -0.72 0.128 0  -0.6799999999999999 0.128 0  -0.64 0.128 0  -0.6 0.128 0  -0.5600000000000001 0.128 0  -0.52 0.128 0  -0.48 0.128 0  -0.4399999999999999 0.128 0  -0.4 0.128 0  -0.36 0.128 0  -0.32 0.128 0  -0.28 0.128 0  -0.24 0.128 0  -0.2 0.128 0  -0.16 0.128 0  -0.12 0.128 0  -0.07999999999999996 0.128 0  -0.04000000000000004 0.128 0  0 0.128 0  0.04000000000000004 0.128 0  0.08000000000000007 0.128 0  0.1200000000000001 0.128 0  0.1599
[...]
<PointData  Scalars="f_100"> 
<DataArray  type="Float64"  Name="f_100"  format="ascii">6.0000000000000002e-05  5.4285148662081017e-05  5.3027019101450611e-05  5.2619454845403412e-05  5.2464601523553208e-05  5.2372395114551651e-05  5.2275226400571816e-05  5.2142035148776078e-05  5.1951460746832320e-05  5.1683779203358771e-05  5.1319096327123674e-05  5.0837830351833958e-05  5.0222154997602882e-05  4.9457842665344306e-05  4.8536111196598002e-05  4.7454835628914646e-05  4.6216081183675931e-05  4.4795708966090235e-05  4.2960251811897494e-05  3.4769516577423007e-05  2.5205229370601170e-05  2.0751383632151300e-05  1.7704088987391486e-05  1.5447330493913323e-05  1.3715172016533916e-05  1.2354617521164983e-05  1.1267489122958188e-05  1.0395812114385070e-05  9.7386861891674959e-06  9.4364009239317075e-06  1.0064523865391644e-05  1.4014671224115115e-05  1.9663078716370287e-05  2.0660255268513110e-05  1.9985771283028668e-05  1.8701384886935812e-05  1.7188078211788570e-05  1.5582417442942498e-05  1.3946279768964458e-05  1.2320024629296008e-05  1.0737312265531074e-05  9.2279781565944032e-06  7.8174952976497805e-06  6.5258011344051277e-06  5.3663491644717082e-06  4.3454177451733989e-06  3.4608106243682149e-06  2.6967009519198156e-06  2.0037675305848626e-06  1.2323194512688241e-06  0.0000000000000000e+00  6.0000000000000002e-05  5.4559237246927274e-05  5.3294388928300029e-05  5.2883803882738115e-05  5.2727930068344631e-05  5.2635288523157040e-05  5.2537789969472610e-05  5.2404183561414517e-05  5.2212999080250917e-05  5.1944418415291851e-05  5.1578450075722608e-05  5.1095409758392233e-05  5.0477368345850909e-05  4.9710003617219680e-05  4.8784457472648690e-05  4.7698560192306947e-05  4.6454390199451329e-05  4.5028148232237957e-05  4.3165571178959772e-05  3.5680883766612969e-05  2.6469046281130109e-05  2.1794701968639529e-05  1.8581631607298611e-05  1.6203575958331142e-05  1.4379415600435069e-05  1.2947349042272297e-05  1.1803473512623322e-05  1.0885656695192015e-05  1.0189528680270393e-05  9.8515735228803960e-06  1.0441332678917497e-05  1.4161994452848186e-05  1.9751827184004674e-05  2.0767678240008809e-05  2.0092502847685952e-05  1.8802695800510989e-05  1.7282264657178675e-05  1.5668754997203841e-05  1.4024430566989607e-05  1.2389872422106502e-05  1.0798920512715191e-05  9.2815763873824737e-06  7.8634650828934524e-06  6.5646545878609299e-06  5.3987003239353870e-06  4.3719500083207830e-06  3.4822450913219637e-06  2.7137735233243306e-06  2.0172292095550576e-06  1.2430117062226434e-06  0.0000000000000000e+00  6.0000000000000002e-05  5.4829280406389317e-05  5.3560938053278577e-05  5.3148796288657388e-05  5.2992363148915334e-05  5.2899431713257539e-05  5.2801648482689806e-05  5.2667639974146101e-05  5.2475847655014527e-05  5.2206365788394306e-05  5.1839107357229148e-05  5.1354285773503402e-05  5.0733868844990613e-05  4.9963439377637392e-05  4.9034063221361087e-05  4.7943527973930348e-05  4.6693945561630129e-05  4.5262031262069066e-05  4.3378056980493617e-05  3.6513869775096240e-05  2.7722523844697397e-05  2.2835584367387596e-05  1.9466487071835226e-05  1.6971770482640017e-05  1.5057955238405238e-05  1.3555573893083361e-05  1.2355481547808403e-05  1.1391583969143651e-05  1.0656008651062179e-05  1.0280951020834718e-05  1.0826415585278739e-05  1.4341678945515281e-05  1.9853895937564360e-05  2.0879963821888177e-05  2.0201167176815528e-05  1.8904976625069702e-05  1.7377093104605568e-05  1.5755605394063362e-05  1.4103026292333255e-05  1.2460115845241095e-05  1.0860880863373353e-05  9.3354854571875237e-06  7.9097061157002854e-06  6.6037416570870045e-06  5.4312499241260080e-06  4.3986484852876000e-06  3.5038169128254329e-06  2.7309579299678109e-06  2.0307750021489417e-06  1.2536920980107693e-06  0.0000000000000000e+00  6.0000000000000002e-05  5.5094482267196987e-05  5.3826625802810596e-05  5.3414425240654227e-05  5.3257903194832464e-05  5.3164830058547302e-05  5.3066808292638526e-05  5.2932411112089420e-05  5.2740013391710029e-05  5.2469628394253884e-05  5.2101075386052599e-05  5.1614465748956984e-05  5.0991663968158273e-05  5.0218157507802786e-05  4.9284936032367465e-05  4.8189746445186642e-05  4.6934753915597941e-05  4.5497348509687521e-05  4.3597256426590346e-05  3.7279195430957021e-05  2.8933853432563252e-05  2.3868319124414261e-05  2.0356181617901805e-05  1.7750639289712369e-05  1.5750183994454028e-05  1.4179103294029603e-05  1.2923602442728180e-05  1.1913878836496612e-05  1.1138569907716103e-05  1.0725181047820588e-05  1.1221616748941578e-05  1.4549751485744757e-05  1.9969496749087663e-05  2.0997185490661336e-05  2.0311794945606350e-05  1.9008239477561410e-05  1.7472569551586593e-05  1.5842972479635287e-05  1.4182069844959059e-05  1.2530757203060704e-05  1.0923195126717752e-05  9.3897067194010426e-06  7.9562193287883513e-06  6.6430628990964713e-06  5.4639981997387301e-06  4.4255131396975322e-06  3.5255258040862876e-06  2.7482535682091495e-06  2.0444037692148354e-06  1.2643569950111500e-06  0.0000000000000000e+00  6.0000000000000002e-05  5.5354284661514289e-05  5.4091427727296630e-05  5.3680688045014356e-05  5.3524553945476665e-05  5.3431489353742048e-05  5.3333275883465398e-05  5.3198503729171312e-05  5.3005503192865405e-05  5.2734213254706720e-05  5.2364361298165602e-05  5.1875956929822329e-05  5.1250761054730269e-05  5.0474165411593153e-05  4.9537083320799977e-05  4.8437222897045341e-05  4.7176821743686589e-05  4.5734094568291592e-05  4.3822713432204408e-05  3.7986362685812181e-05  3.0087684837940180e-05  2.4888812930264970e-05  2.1248601361281898e-05  1.8539087427555701e-05  1.6455613776975893e-05  1.4817837934978993e-05  1.3507996731617143e-05  1.2452882049638055e-05  1.1637690579941002e-05  1.1184898783914806e-05  1.1628489340008187e-05  1.4783379209528227e-05  2.0098784747508335e-05  2.1119397903688723e-05  2.0424408805115485e-05  1.9112493814238645e-05  1.7568699105819237e-05  1.5930859784599414e-05  1.4261564012043703e-05  1.2601798777290548e-05  1.0985865145510027e-05  9.4442416051883888e-06  8.0030057696646849e-06  6.6826190155186241e-06  5.4969455522446188e-06  4.4525441175657612e-06  3.5473716777805254e-06  2.7656600669537983e-06  2.0581147155550141e-06  1.2750046359143996e-06  0.0000000000000000e+00  6.0000000000000002e-05  5.5608323829690724e-05  5.4355333487691506e-05  5.3947585909714528e-05  5.3792320382899609e-05  5.3699415796224601e-05  5.3601057869578471e-05  5.3465924614009486e-05  5.3272323953679814e-05  5.3000127357076153e-05  5.2628972171065206e-05  5.2138766479302040e-05  5.1511167339928883e-05  5.0731470369309338e-05  4.9790512363856931e-05  4.8685964475623348e-05  4.7420155376116680e-05  4.5972266918267375e-05  4.4053980690034578e-05  3.8643676630540994e-05  3.1178236641646754e-05  2.5893796880149325e-05  2.2141879590305001e-05  1.9336147262536637e-05  1.7173841575687888e-05  1.5471744818480331e-05  1.4108880570194177e-05  1.3008981252386360e-05  1.2153883476188327e-05  1.1660747171724045e-05  1.2048373638387334e-05  1.5040556374076335e-05  2.0241859756667367e-05  2.1246637217203881e-05  2.0539023795913693e-05  1.9217746590066671e-05  1.7665486047302017e-05  1.6019270552163050e-05  1.4341511481037007e-05  1.2673242830543338e-05  1.1048892791497549e-05  9.4990916115100244e-06  8.0500665820403157e-06  6.7224108285257619e-06  5.5300925216380344e-06  4.4797417160192046e-06  3.5693546098954443e-06  2.7831772476515873e-06  2.0719073352083329e-06  1.2856347692329114e-06  0.0000000000000000e+00  6.0000000000000002e-05  5.5856394490362911e-05  5.4618345367711593e-05  5.4215123760024352e-05  5.4061208676253580e-05  5.3968615970862908e-05  5.3870160994440501e-05  5.3734680594784724e-05  5.3540482570896280e-05  5.3267377666761312e-05  5.2894915040250431e-05  5.2402901499235983e-05  5.1772889979234926e-05  5.0990079565495636e-05  5.0045230330941758e-05  4.8935978211599300e-05  4.7664761002816945e-05  4.6211864928112932e-05  4.4290628108479681e-05  3.9258333039054975e-05  3.2205168910510627e-05  2.6880594488673160e-05  2.3034363530152612e-05  2.0140959187028256e-05  1.7904536478819851e-05  1.6140848338736977e-05  1.4726519948603831e-05  1.3582608339014261e-05  1.2687698271987519e-05  1.2153389276879503e-05  1.2482455604711341e-05  1.5319880028222661e-05  2.0398769266205746e-05  2.1378921323384664e-05  2.0655647694188719e-05  1.9324002390528442e-05  1.7762933879617853e-05  1.6108207761102344e-05  1.4421914850391856e-05  1.2745091609181742e-05  1.1112279961614671e-05  9.5542582912222256e-06  8.0974029905016330e-06  6.7624392609993112e-06  5.5634397631771141e-06  4.5071063575613309e-06  3.5914748116426325e-06  2.8008050913939515e-06  2.0857813666563980e-06  1.2962483567172383e-06  0.0000000000000000e+00  6.0000000000000002e-05  5.6098420074146147e-05  5.4880477228672808e-05  5.4483310084428993e-05  5.4331226134787970e-05  5.4239096837139863e-05  5.4140592129483595e-05  5.4004778543249895e-05  5.3809985950134015e-05  5.3535971137639084e-05  5.3162196912829152e-05  5.2668369047022974e-05  5.2035936068524389e-05  5.1250000111877113e-05  5.0301244308512892e-05  4.9187271044553726e-05  4.7910644685395712e-05  4.6452889068089814e-05  4.4532248402833174e-05  3.9836534188038113e-05  3.3171122312149109e-05  2.7847091476680902e-05  2.3924612068385063e-05  2.0952769216947671e-05  1.8647437834849247e-05  1.6825229125501540e-05  1.5361230349847650e-05  1.4174240284396470e-05  1.3239724650971104e-05  1.2663516361847475e-05  1.2931811456657794e-05  1.5620389176801326e-05  2.0569512137537140e-05  2.1516250030172234e-05  2.0774281306295367e-05  1.9431263542513497e-05  1.7861045372892208e-05  1.6197674144945814e-05  1.4502776638442672e-05  1.2817347345664637e-05  1.1176028574828795e-05  9.6097432448997390e-06  8.1450162878693678e-06  6.8027053201897074e-06  5.5969880282355100e-06  4.5346385688989873e-06  3.6137326063616921e-06  2.8185437118442056e-06  2.0997367560403399e-06  1.3068473300052644e-06  0.0000000000000000e+00  6.0000000000000002e-05  5.6334428112191612e-05  5.5141753769414418e-05  5.4752156801560811e-05  5.4602381167008611e-05  5.4510865717906506e-05  5.4412358273034754e-05  5.4276225377999433e-05  5.4080841011942505e-05  5.3805914720661687e-05  5.3430824778759628e-05  5.2935176149591909e-05  5.2300312660684382e-05  5.1511239066278101e-05  5.0558561320581954e-05  4.9439849843135506e-05  4.8157812368810452e-05  4.6695340301359872e-05  4.4778460490819518e-05  4.0383611912047518e-05  3.4080262091865916e-05  2.8791752104680431e-05  2.4811404965696560e-05  2.1770935145518699e-05  1.9402359409233621e-05  1.7525027172298349e-05  1.6013379451748452e-05  1.4784401927698242e-05  1.3810595984467224e-05  1.3191853736101423e-05  1.3397442082213114e-05  1.5941449354119535e-05  2.0754042467990467e-05  2.1658605205158414e-05  2.0894918724903950e-05  1.9539530209693760e-05  1.7959822600453759e-05  1.6287672208161084e-05  1.4584099290821129e-05  1.2890012260493268e-05  1.1240140569530307e-05  9.6655481140843593e-06  8.1929078247755946e-06  6.8432100842554725e-06  5.6307381485390730e-06  4.5623389635225256e-06  3.6361284105270173e-06  2.8363933329598582e-06  2.1137736268454306e-06  1.3174343915916110e-06  0.0000000000000000e+00  6.0000000000000002e-05  5.6564529934427601e-05  5.5402209989047712e-05  5.5021679141116697e-05  5.4874683244079156e-05  5.4783930289209274e-05  5.4685466549166971e-05  5.4549028067103176e-05  5.4353054696794389e-05  5.4077215370965159e-05  5.3700805620142819e-05  5.3203329814943008e-05  5.2566026779330758e-05  5.1773803448233217e-05  5.0817188345631495e-05  4.9693721421797660e-05  4.8406269892477200e-05  4.6939219621935932e-05  4.5028911220778516e-05  4.0904146575692122e-05  3.4937427347351348e-05  2.9713624578102943e-05  2.5693755498636930e-05  2.2594936845413198e-05  2.0169196758767986e-05  1.8240447368388013e-05  1.6683391577371466e-05  1.5413669900644535e-05  1.4400993361420162e-05  1.3739165554822770e-05  1.3880299999560695e-05  1.6282669722058539e-05  2.0952273254326158e-05  2.1805950901910878e-05  2.1017547557558165e-05  1.9648800476742215e-05  1.8059266970831992e-05  1.6378204240041815e-05  1.4665885186724368e-05  1.2963088563850326e-05  1.1304617901381420e-05  9.7216745757142887e-06  8.2410790010711280e-06  6.8839546911748265e-06  5.6646910231892537e-06  4.5902082273736466e-06  3.6586627181275186e-06  2.8543542706510694e-06  2.1278922548097483e-06  1.3280128526768781e-06  0.0000000000000000e+00  6.0000000000000002e-05  5.6788903969433812e-05  5.5661890777495773e-05  5.5291895533447951e-05  5.5148142865933013e-05  5.5058298570754160e-05  5.4959924206410865e-05  5.4823193630191660e-05  5.4626633969195786e-05  5.4349880053748921e-05  5.3972146418908815e-05  5.3472837041688260e-05  5.2833085430139864e-05  5.2037700251876799e-05  5.1077132330587832e-05  4.9948892554714983e-05  4.8656023000702183e-05  4.7184527713001207e-05  4.5283275854879615e-05  4.1402076396248493e-05  3.5747644181972930e-05  3.0612321579074138e-05  2.6570922905365484e-05  2.3424388323982350e-05  2.0947936309343610e-05  1.8971766411160825e-05  1.7371753192475071e-05  1.6062677268251552e-05  1.5011649887084706e-05  1.4306259216979636e-05  1.4381310816252937e-05  1.6643843503526124e-05  2.1164079643460198e-05  2.1958233484114938e-05  2.1142149136520606e-05  1.9759070425896836e-05  1.8159379256406475e-05  1.6469272326858195e-05  1.4748136644291278e-05  1.3036578457006496e-05  1.1369462541552645e-05  9.7781243375313566e-06  8.2895312587432923e-06  6.9249403296120665e-06  5.6988476079804499e-06  4.6182471070530785e-06  3.6813360878187090e-06  2.8724269176715349e-06  2.1420930470541958e-06  1.3385865016861456e-06  0.0000000000000000e+00  6.0000000000000002e-05  5.7007782052877134e-05  5.5920850579657719e-05  5.5562827503791714e-05  5.5422771528879371e-05  5.5333978916662331e-05  5.5235738616277443e-05  5.5098729140066216e-05  5.4901585821062845e-05  5.4623915749140792e-05  5.4244854163180180e-05  5.3743704826944466e-05  5.3101495610216690e-05  5.2302936456593011e-05  5.1338400202372234e-05  5.0205369987388814e-05  4.8907077352413040e-05  4.7431264703001075e-05  4.5541257640693180e-05  4.1880794882360399e-05  3.6515856852658107e-05  3.1487979097928505e-05  2.7442422832731907e-05  2.4259050211328530e-05  2.1738665299950958e-05  1.9719340535777605e-05  1.8079019067008315e-05  1.6732118650017622e-05  1.5643355217468320e-05  1.4893989713428401e-05  1.4901390616908746e-05  1.7024905189743113e-05  2.1389301655366191e-05  2.2115381760173052e-05  2.1268698717185554e-05  1.9870334208676190e-05  1.8260159619762260e-05  1.6560878362725413e-05  1.4830855925293663e-05  1.3110484133554082e-05  1.1434676475286856e-05  9.8348991342980092e-06  8.3382660760797960e-06  6.9661682313943006e-06  5.7332089066053214e-06  4.6464564001170402e-06  3.7041491323530812e-06  2.8906117311630502e-06  2.1563765246254951e-06  1.3491594982732335e-06  0.0000000000000000e+00  6.0000000000000002e-05  5.7221438247831484e-05  5.6179153094895382e-05  5.5834499568080447e-05  5.5698581693743040e-05  5.5610980006245437e-05  5.5512917271555756e-05  5.5375641723895794e-05  5.5177917274486751e-05  5.4899329456224757e-05  5.4518935852545675e-05  5.4015940172870549e-05  5.3371264315847585e-05  5.2569519035824321e-05  5.1600998877461038e-05  5.0463160446354886e-05  4.9159438530230204e-05  4.7679430000371927e-05  4.5802586730947606e-05  4.2343236022441403e-05  3.7246788784797938e-05  3.2341201701460175e-05  2.8308034902727935e-05  2.5098841956723643e-05  2.2541582121983927e-05  2.0483613746626157e-05  1.8805818888580697e-05  1.7422755695644038e-05  1.6296960317267206e-05  1.5503264106313059e-05  1.5441460339173959e-05  1.7425899830459243e-05  2.1627746326195446e-05  2.2277307138560936e-05  2.1397165671011627e-05  1.9982584114984215e-05  1.8361607638593931e-05  1.6653024059555700e-05  1.4914045239309450e-05  1.3184807780515169e-05  1.1500261700740500e-05  9.8920007246848143e-06  8.3872849628604335e-06  7.0076396653143575e-06  5.7677759634135056e-06  4.6748369470911145e-06  3.7271025098822377e-06  2.9089092223777449e-06  2.1707433078001762e-06  1.3597362884846056e-06  0.0000000000000000e+00  6.0000000000000002e-05  5.7430179761106226e-05  5.6436870985486892e-05  5.6106939128002070e-05  5.5975586753785660e-05  5.5889310834589214e-05  5.5791467784359664e-05  5.5653938564052850e-05  5.5455635383989146e-05  5.5176128196377486e-05  5.4794398502436688e-05  5.4289550092089164e-05  5.3642398548924155e-05  5.2837454964365853e-05  5.1864935269810048e-05  5.0722270647337332e-05  4.9413112048956914e-05  4.7929022190848844e-05  4.6067018651499159e-05  4.2791947847079197e-05  3.7944880268757545e-05  3.3173002265020740e-05  2.9167807107472978e-05  2.5943853350778457e-05  2.3357006784102878e-05  2.1265126369384772e-05  1.9552864207690902e-05  1.8135422845454558e-05  1.6973382436982220e-05  1.6135046228101307e-05  1.6002457932499849e-05  1.7846961049468683e-05  2.1879189259458601e-05  2.2443903812338093e-05  2.1527513677821550e-05  2.0095810641376274e-05  1.8463722329827688e-05  1.6745710956387017e-05  1.4997706747512563e-05  1.3259551579362017e-05  1.1566220228059560e-05  9.9494308887131215e-06  8.4365894563963086e-06  7.0493559320255436e-06  5.8025498574480100e-06  4.7033896248955961e-06  3.7501969167961317e-06  2.9273199481863539e-06  2.1851941036232991e-06  1.3703215374720431e-06  0.0000000000000000e+00  6.0000000000000002e-05  5.7634339607421209e-05  5.6694085576585175e-05  5.6380176363549875e-05  5.6253801001826883e-05  5.6168980702783395e-05  5.6071397883906133e-05  5.5933626898632772e-05  5.5734747238352011e-05  5.5454319016034578e-05  5.5071249147765307e-05  5.4564541612191153e-05  5.3914905322275167e-05  5.3106751224415508e-05  5.2130216297435560e-05  5.0982707302131517e-05  4.9668103363586400e-05  4.8180038984001875e-05  4.6334332469437757e-05  4.3229155462895760e-05  3.8614270806070859e-05  3.3984742369140978e-05  3.0022057170585958e-05  2.6794355194866342e-05  2.4185391346541564e-05  2.2064523816081941e-05  2.0320955644056397e-05  1.8871033335271995e-05  1.7673610307190194e-05  1.6790361639629758e-05  1.6585348901710560e-05  1.8288295379447716e-05  2.2143375597194651e-05  2.2615048979741737e-05  2.1659700921390445e-05  2.0210002559877025e-05  1.8566502173489242e-05  1.6838940428322012e-05  1.5081842566187722e-05  1.3334717706979589e-05  1.1632554078654446e-05  1.0007191425657194e-05  8.4861811182675087e-06  7.0913183598347124e-06  5.8375316975318491e-06  4.7321153414302441e-06  3.7734330818238977e-06  2.9458445040501752e-06  2.1997296952566066e-06  1.3809200767393574e-06  0.0000000000000000e+00  6.0000000000000002e-05  5.7834270729991419e-05  5.6950886536747017e-05  5.6654244121743081e-05  5.6533239596123360e-05  5.6449999207676135e-05  5.6352715414014561e-05  5.6214714021694595e-05  5.6015259962092121e-05  5.5733908988986217e-05  5.5349494845955141e-05  5.4840921779486301e-05  5.4188791664101499e-05  5.3377414810602934e-05  5.2396848887893672e-05  5.1244477124448246e-05  4.9924417876931827e-05  4.8432477198012767e-05  4.6604328774936735e-05  4.3656814830385243e-05  3.9258806886368602e-05  3.4778077493557671e-05  3.0871371316352648e-05  2.7650809067185394e-05  2.5027330235835628e-05  2.2882565496809636e-05  2.1110990310341126e-05  1.9630585421077114e-05  1.8398709547941841e-05  1.7470302862361313e-05  1.7191135696462315e-05  1.8750171190517208e-05  2.2420020436671746e-05  2.2790603106714262e-05  2.1793680291463773e-05  2.0325146988426912e-05  1.8669945136729392e-05  1.6932713695262319e-05  1.5166454770056687e-05  1.3410308336593596e-05  1.1699265284643702e-05  1.0065284152326417e-05  8.5360615316359564e-06  7.1335283012338612e-06  5.8727226182172701e-06  4.7610150311105495e-06  3.7968117611692075e-06  2.9644835181912595e-06  2.2143509327917050e-06  1.3915368634045604e-06  0.0000000000000000e+00  6.0000000000000002e-05  5.8030341333577063e-05  5.7207371532805555e-05  5.6929177800549562e-05  5.6813918524678937e-05  5.6732376231064598e-05  5.6635428330322107e-05  5.6497207283255933e-05  5.6297180716638363e-05  5.6014905218285139e-05  5.5629142679473507e-05  5.5118697662135775e-05  5.4464064621675658e-05  5.364945273418109