<?xml version="1.0"?>
<VTKFile type="UnstructuredGrid"  version="0.1"  >
<UnstructuredGrid>
<Piece  NumberOfPoints="2601" NumberOfCells="5000">
<Points>
<DataArray  type="Float64"  NumberOfComponents="3"  format="ascii">-1 0 0  -0.96 0 0  -0.92 0 0  -0.88 0 0  -0.84 0 0  -0.8 0 0  -0.76 0 0  -0.72 0 0  -0.6799999999999999 0 0  -0.64 0 0  -0.6 0 0  -0.5600000000000001 0 0  -0.52 0 0  -0.48 0 0  -0.4399999999999999 0 0  -0.4 0 0  -0.36 0 0  -0.32 0 0  -0.28 0 0  -0.24 0 0  -0.2 0 0  -0.16 0 0  -0.12 0 0  -0.07999999999999996 0 0  -0.04000000000000004 0 0  0 0 0  0.04000000000000004 0 0  0.08000000000000007 0 0  0.1200000000000001 0 0  0.1599999999999999 0 0  0.2 0 0  0.24 0 0  0.28 0 0  0.3200000000000001 0 0  0.3600000000000001 0 0  0.3999999999999999 0 0  0.4399999999999999 0 0  0.48 0 0  0.52 0 0  0.5600000000000001 0 0  0.6000000000000001 0 0  0.6399999999999999 0 0  0.6799999999999999 0 0  0.72 0 0  0.76 0 0  0.8 0 0  0.8400000000000001 0 0  0.8799999999999999 0 0  0.9199999999999999 0 0  0.96 0 0  1 0 0  -1 0.016 0  -0.96 0.016 0  -0.92 0.016 0  -0.88 0.016 0  -0.84 0.016 0  -0.8 0.016 0  -0.76 0.016 0  -0.72 0.016 0  -0.6799999999999999 0.016 0  -0.64 0.016 0  -0.6 0.016 0  -0.5600000000000001 0.016 0  -0.52 0.016 0  -0.48 0.016 0  -0.4399999999999999 0.016 0  -0.4 0.016 0  -0.36 0.016 0  -0.32 0.016 0  -0.28 0.016 0  -0.24 0.016 0  -0.2 0.016 0  -0.16 0.016 0  -0.12 0.016 0  -0.07999999999999996 0.016 0  -0.04000000000000004 0.016 0  0 0.016 0  0.04000000000000004 0.016 0  0.08000000000000007 0.016 0  0.1200000000000001 0.016 0  0.1599999999999999 0.016 0  0.2 0.016 0  0.24 0.016 0  0.28 0.016 0  0.3200000000000001 0.016 0  0.3600000000000001 0.016 0  0.3999999999999999 0.016 0  0.4399999999999999 0.016 0  0.48 0.016 0  0.52 0.016 0  0.5600000000000001 0.016 0  0.6000000000000001 0.016 0  0.6399999999999999 0.016 0  0.6799999999999999 0.016 0  0.72 0.016 0  0.76 0.016 0  0.8 0.016 0  0.8400000000000001 0.016 0  0.8799999999999999 0.016 0  0.9199999999999999 0.016 0  0.96 0.016 0  1 0.016 0  -1 0.032 0  -0.96 0.032 0  -0.92 0.032 0  -0.88 0.032 0  -0.84 0.032 0  -0.8 0.032 0  -0.76 0.032 0  -0.72 0.032 0  -0.6799999999999999 0.032 0  -0.64 0.032 0  -0.6 0.032 0  -0.5600000000000001 0.032 0  -0.52 0.032 0  -0.48 0.032 0  -0.4399999999999999 0.032 0  -0.4 0.032 0  -0.36 0.032 0  -0.32 0.032 0  -0.28 0.032 0  -0.24 0.032 0  -0.2 0.032 0  -0.16 0.032 0  -0.12 0.032 0  -0.07999999999999996 0.032 0  -0.04000000000000004 0.032 0  0 0.032 0  0.04000000000000004 0.032 0  0.08000000000000007 0.032 0  0.1200000000000001 0.032 0  0.1599999999999999 0.032 0  0.2 0.032 0  0.24 0.032 0  0.28 0.032 0  0.3200000000000001 0.032 0  0.3600000000000001 0.032 0  0.3999999999999999 0.032 0  0.4399999999999999 0.032 0  0.48 0.032 0  0.52 0.032 0  0.5600000000000001 0.032 0  0.6000000000000001 0.032 0  0.6399999999999999 0.032 0  0.6799999999999999 0.032 0  0.72 0.032 0  0.76 0.032 0  0.8 0.032 0  0.8400000000000001 0.032 0  0.8799999999999999 0.032 0  0.9199999999999999 0.032 0  0.96 0.032 0  1 0.032 0  -1 0.04800000000000001 0  -0.96 0.04800000000000001 0  -0.92 0.04800000000000001 0  -0.88 0.04800000000000001 0  -0.84 0.04800000000000001 0  -0.8 0.04800000000000001 0  -0.76 0.04800000000000001 0  -0.72 0.04800000000000001 0  -0.6799999999999999 0.04800000000000001 0  -0.64 0.04800000000000001 0  -0.6 0.04800000000000001 0  -0.5600000000000001 0.04800000000000001 0  -0.52 0.04800000000000001 0  -0.48 0.04800000000000001 0  -0.4399999999999999 0.04800000000000001 0  -0.4 0.04800000000000001 0  -0.36 0.04800000000000001 0  -0.32 0.04800000000000001 0  -0.28 0.04800000000000001 0  -0.24 0.04800000000000001 0  -0.2 0.04800000000000001 0  -0.16 0.04800000000000001 0  -0.12 0.04800000000000001 0  -0.07999999999999996 0.04800000000000001 0  -0.04000000000000004 0.04800000000000001 0  0 0.04800000000000001 0  0.04000000000000004 0.04800000000000001 0  0.08000000000000007 0.04800000000000001 0  0.1200000000000001 0.04800000000000001 0  0.1599999999999999 0.04800000000000001 0  0.2 0.04800000000000001 0  0.24 0.04800000000000001 0  0.28 0.04800000000000001 0  0.3200000000000001 0.04800000000000001 0  0.3600000000000001 0.04800000000000001 0  0.3999999999999999 0.04800000000000001 0  0.4399999999999999 0.04800000000000001 0  0.48 0.04800000000000001 0  0.52 0.04800000000000001 0  0.5600000000000001 0.04800000000000001 0  0.6000000000000001 0.04800000000000001 0  0.6399999999999999 0.04800000000000001 0  0.6799999999999999 0.04800000000000001 0  0.72 0.04800000000000001 0  0.76 0.04800000000000001 0  0.8 0.04800000000000001 0  0.8400000000000001 0.04800000000000001 0  0.8799999999999999 0.04800000000000001 0  0.9199999999999999 0.04800000000000001 0  0.96 0.04800000000000001 0  1 0.04800000000000001 0  -1 0.064 0  -0.96 0.064 0  -0.92 0.064 0  -0.88 0.064 0  -0.84 0.064 0  -0.8 0.064 0  -0.76 0.064 0  -0.72 0.064 0  -0.6799999999999999 0.064 0  -0.64 0.064 0  -0.6 0.064 0  -0.5600000000000001 0.064 0  -0.52 0.064 0  -0.48 0.064 0  -0.4399999999999999 0.064 0  -0.4 0.064 0  -0.36 0.064 0  -0.32 0.064 0  -0.28 0.064 0  -0.24 0.064 0  -0.2 0.064 0  -0.16 0.064 0  -0.12 0.064 0  -0.07999999999999996 0.064 0  -0.04000000000000004 0.064 0  0 0.064 0  0.04000000000000004 0.064 0  0.08000000000000007 0.064 0  0.1200000000000001 0.064 0  0.1599999999999999 0.064 0  0.2 0.064 0  0.24 0.064 0  0.28 0.064 0  0.3200000000000001 0.064 0  0.3600000000000001 0.064 0  0.3999999999999999 0.064 0  0.4399999999999999 0.064 0  0.48 0.064 0  0.52 0.064 0  0.5600000000000001 0.064 0  0.6000000000000001 0.064 0  0.6399999999999999 0.064 0  0.6799999999999999 0.064 0  0.72 0.064 0  0.76 0.064 0  0.8 0.064 0  0.8400000000000001 0.064 0  0.8799999999999999 0.064 0  0.9199999999999999 0.064 0  0.96 0.064 0  1 0.064 0  -1 0.08 0  -0.96 0.08 0  -0.92 0.08 0  -0.88 0.08 0  -0.84 0.08 0  -0.8 0.08 0  -0.76 0.08 0  -0.72 0.08 0  -0.6799999999999999 0.08 0  -0.64 0.08 0  -0.6 0.08 0  -0.5600000000000001 0.08 0  -0.52 0.08 0  -0.48 0.08 0  -0.4399999999999999 0.08 0  -0.4 0.08 0  -0.36 0.08 0  -0.32 0.08 0  -0.28 0.08 0  -0.24 0.08 0  -0.2 0.08 0  -0.16 0.08 0  -0.12 0.08 0  -0.07999999999999996 0.08 0  -0.04000000000000004 0.08 0  0 0.08 0  0.04000000000000004 0.08 0  0.08000000000000007 0.08 0  0.1200000000000001 0.08 0  0.1599999999999999 0.08 0  0.2 0.08 0  0.24 0.08 0  0.28 0.08 0  0.3200000000000001 0.08 0  0.3600000000000001 0.08 0  0.3999999999999999 0.08 0  0.4399999999999999 0.08 0  0.48 0.08 0  0.52 0.08 0  0.5600000000000001 0.08 0  0.6000000000000001 0.08 0  0.6399999999999999 0.08 0  0.6799999999999999 0.08 0  0.72 0.08 0  0.76 0.08 0  0.8 0.08 0  0.8400000000000001 0.08 0  0.8799999999999999 0.08 0  0.9199999999999999 0.08 0  0.96 0.08 0  1 0.08 0  -1 0.09600000000000002 0  -0.96 0.09600000000000002 0  -0.92 0.09600000000000002 0  -0.88 0.09600000000000002 0  -0.84 0.09600000000000002 0  -0.8 0.09600000000000002 0  -0.76 0.09600000000000002 0  -0.72 0.09600000000000002 0  -0.6799999999999999 0.09600000000000002 0  -0.64 0.09600000000000002 0  -0.6 0.09600000000000002 0  -0.5600000000000001 0.09600000000000002 0  -0.52 0.09600000000000002 0  -0.48 0.09600000000000002 0  -0.4399999999999999 0.09600000000000002 0  -0.4 0.09600000000000002 0  -0.36 0.09600000000000002 0  -0.32 0.09600000000000002 0  -0.28 0.09600000000000002 0  -0.24 0.09600000000000002 0  -0.2 0.09600000000000002 0  -0.16 0.09600000000000002 0  -0.12 0.09600000000000002 0  -0.07999999999999996 0.09600000000000002 0  -0.04000000000000004 0.09600000000000002 0  0 0.09600000000000002 0  0.04000000000000004 0.09600000000000002 0  0.08000000000000007 0.09600000000000002 0  0.1200000000000001 0.09600000000000002 0  0.1599999999999999 0.09600000000000002 0  0.2 0.09600000000000002 0  0.24 0.09600000000000002 0  0.28 0.09600000000000002 0  0.3200000000000001 0.09600000000000002 0  0.3600000000000001 0.09600000000000002 0  0.3999999999999999 0.09600000000000002 0  0.4399999999999999 0.09600000000000002 0  0.48 0.09600000000000002 0  0.52 0.09600000000000002 0  0.5600000000000001 0.09600000000000002 0  0.6000000000000001 0.09600000000000002 0  0.6399999999999999 0.09600000000000002 0  0.6799999999999999 0.09600000000000002 0  0.72 0.09600000000000002 0  0.76 0.09600000000000002 0  0.8 0.09600000000000002 0  0.8400000000000001 0.09600000000000002 0  0.8799999999999999 0.09600000000000002 0  0.9199999999999999 0.09600000000000002 0  0.96 0.09600000000000002 0  1 0.09600000000000002 0  -1 0.112 0  -0.96 0.112 0  -0.92 0.112 0  -0.88 0.112 0  -0.84 0.112 0  -0.8 0.112 0  -0.76 0.112 0  -0.72 0.112 0  -0.6799999999999999 0.112 0  -0.64 0.112 0  -0.6 0.112 0  -0.5600000000000001 0.112 0  -0.52 0.112 0  -0.48 0.112 0  -0.4399999999999999 0.112 0  -0.4 0.112 0  -0.36 0.112 0  -0.32 0.112 0  -0.28 0.112 0  -0.24 0.112 0  -0.2 0.112 0  -0.16 0.112 0  -0.12 0.112 0  -0.07999999999999996 0.112 0  -0.04000000000000004 0.112 0  0 0.112 0  0.04000000000000004 0.112 0  0.08000000000000007 0.112 0  0.1200000000000001 0.112 0  0.1599999999999999 0.112 0  0.2 0.112 0  0.24 0.112 0  0.28 0.112 0  0.3200000000000001 0.112 0  0.3600000000000001 0.112 0  0.3999999999999999 0.112 0  0.4399999999999999 0.112 0  0.48 0.112 0  0.52 0.112 0  0.5600000000000001 0.112 0  0.6000000000000001 0.112 0  0.6399999999999999 0.112 0  0.6799999999999999 0.112 0  0.72 0.112 0  0.76 0.112 0  0.8 0.112 0  0.8400000000000001 0.112 0  0.8799999999999999 0.112 0  0.9199999999999999 0.112 0  0.96 0.112 0  1 0.112 0  -1 0.128 0  -0.96 0.128 0  -0.92 0.128 0  -0.88 0.128 0  -0.84 0.128 0  -0.8 0.128 0  -0.76 0.128 0  -0.72 0.128 0  -0.6799999999999999 0.128 0  -0.64 0.128 0  -0.6 0.128 0  -0.5600000000000001 0.128 0  -0.52 0.128 0  -0.48 0.128 0  -0.4399999999999999 0.128 0  -0.4 0.128 0  -0.36 0.128 0  -0.32 0.128 0  -0.28 0.128 0  -0.24 0.128 0  -0.2 0.128 0  -0.16 0.128 0  -0.12 0.128 0  -0.07999999999999996 0.128 0  -0.04000000000000004 0.128 0  0 0.128 0  0.04000000000000004 0.128 0  0.08000000000000007 0.128 0  0.1200000000000001 0.128 0  0.1599
[...]
<PointData  Scalars="f_100"> 
<DataArray  type="Float64"  Name="f_100"  format="ascii">6.0000000000000002e-05  5.3085528229338611e-05  4.9781389769591768e-05  4.6452014867312922e-05  4.2765638595904104e-05  3.8976249423539671e-05  3.5471348093171109e-05  3.2545785377367037e-05  3.0321027992794057e-05  2.8764432628074557e-05  2.7753317597583720e-05  2.7138495083120415e-05  2.6785169049215017e-05  2.6588787436652738e-05  2.6472230819327698e-05  2.6370622629446702e-05  2.6206129720391841e-05  2.5844762386987527e-05  2.4982057780489024e-05  2.0001312524559509e-05  1.3815908024076333e-05  1.0332760211988993e-05  7.5432681743449341e-06  5.2659471305534127e-06  3.4862116610914753e-06  2.1824682442925096e-06  1.2923189177904592e-06  7.2530028468517431e-07  3.8709349217154870e-07  1.9776448453854959e-07  1.0077262521435557e-07  7.5292648758828301e-08  7.4372285857587217e-08  4.5379696205506402e-08  2.3154844391035719e-08  1.0767214541427904e-08  4.7331126586991479e-09  1.9996307857573675e-09  8.1871858951534854e-10  3.2640750489002397e-10  1.2709922996791644e-10  4.8441847158398647e-11  1.8101810821568934e-11  6.6412471410121287e-12  2.3950983252178030e-12  8.4996921341621412e-13  2.9709920035951929e-13  1.0236609821809146e-13  3.4724742293508076e-14  1.1087284187351527e-14  0.0000000000000000e+00  6.0000000000000002e-05  5.3361624189428449e-05  5.0045297186754114e-05  4.6702236512425253e-05  4.2999114102439986e-05  3.9190269236082358e-05  3.5665412181079264e-05  3.2721744369695813e-05  3.0482258549660154e-05  2.8914773512951432e-05  2.7896254623878905e-05  2.7276757402457929e-05  2.6920668451433877e-05  2.6722749903726297e-05  2.6605387433860906e-05  2.6503375145595764e-05  2.6338642322471891e-05  2.5977060333985772e-05  2.5101331317381322e-05  2.0535647158935919e-05  1.4548166572510471e-05  1.0907307152544797e-05  7.9783722708964151e-06  5.5821792050255918e-06  3.7042288749737897e-06  2.3243137086769395e-06  1.3793350387224443e-06  7.7571515512348487e-07  4.1476075896458861e-07  2.1218346058690171e-07  1.0785115311003422e-07  7.6675529401789658e-08  7.4932066818188829e-08  4.5769866270784048e-08  2.3358047466479521e-08  1.0862904152099796e-08  4.7756424340604118e-09  2.0177812299497222e-09  8.2621936845743570e-10  3.2942347602880486e-10  1.2828278588777014e-10  4.8896159764403879e-11  1.8272686616550393e-11  6.7043130537994040e-12  2.4179670019152260e-12  8.5812567074315926e-13  2.9996344632814793e-13  1.0335732433602571e-13  3.5063284347343440e-14  1.1203207464828523e-14  0.0000000000000000e+00  6.0000000000000002e-05  5.3633585066825851e-05  5.0308321110275272e-05  4.6953033117300795e-05  4.3233589773018980e-05  3.9405374665297349e-05  3.5860529308915077e-05  3.2898683240761273e-05  3.0644387854912975e-05  2.9065940029880156e-05  2.8039959224425727e-05  2.7415745516806411e-05  2.7056866006389300e-05  2.6857393594161882e-05  2.6739215796886124e-05  2.6636795788130742e-05  2.6471833820287397e-05  2.6110155630701996e-05  2.5224699015693955e-05  2.1023461204521373e-05  1.5273200296464738e-05  1.1479086013129451e-05  8.4158935099730124e-06  5.9026035585559903e-06  3.9265632105983762e-06  2.4698276608816952e-06  1.4691091678189480e-06  8.2801524844389311e-07  4.4361732353713983e-07  2.2730103939100276e-07  1.1529662508628957e-07  7.8577009474862177e-08  7.5641173270328846e-08  4.6203020482388268e-08  2.3572995535544095e-08  1.0962041682179880e-08  4.8193037391410873e-09  2.0363411106711071e-09  8.3387749592863517e-10  3.3250146973706386e-10  1.2949085562380520e-10  4.9360070697177598e-11  1.8447264670686172e-11  6.7687826903485250e-12  2.4413585968331083e-12  8.6647358099332712e-13  3.0289663016659113e-13  1.0437298447748969e-13  3.5410355268102094e-14  1.1321792138701000e-14  0.0000000000000000e+00  6.0000000000000002e-05  5.3900609874053855e-05  5.0570427833771461e-05  4.7204405892991036e-05  4.3469074176017854e-05  3.9621573264383655e-05  3.6056703592479033e-05  3.3076603022878173e-05  3.0807415258836376e-05  2.9217931228789293e-05  2.8184431029906625e-05  2.7555459977555038e-05  2.7193763154933123e-05  2.6992720632764858e-05  2.6873718479389853e-05  2.6770887374546151e-05  2.6605706962657195e-05  2.6244042473430814e-05  2.5351899168004080e-05  2.1471057603679491e-05  1.5972430993483177e-05  1.2044803127736379e-05  8.8543898651953201e-06  6.2264137511163025e-06  4.1527248273431445e-06  2.6186979288735888e-06  1.5614389089986079e-06  8.8207098891688658e-07  4.7358316044659443e-07  2.4307089709037581e-07  1.2309419074382982e-07  8.0930305669492279e-08  7.6502176871433752e-08  4.6679786058260557e-08  2.3799746102247587e-08  1.1064577842672803e-08  4.8640555299321948e-09  2.0552877757540251e-09  8.4168209709217496e-10  3.3563662871771947e-10  1.3072136887662978e-10  4.9832728002511684e-11  1.8625204373920442e-11  6.8345232475607511e-12  2.4652224811731654e-12  8.7499403487699150e-13  3.0589182189701244e-13  1.0541058253103054e-13  3.5765066016440411e-14  1.1442698781649669e-14  0.0000000000000000e+00  6.0000000000000002e-05  5.4162137551047979e-05  5.0831598835021116e-05  4.7456358845207592e-05  4.3705576120792256e-05  3.9838872557485718e-05  3.6253939521006465e-05  3.3255505541215382e-05  3.0971341107655033e-05  2.9370747132842300e-05  2.8329670481324049e-05  2.7695901938020145e-05  2.7331361750106741e-05  2.7128733413804516e-05  2.7008898228399605e-05  2.6905652839701106e-05  2.6740264564230574e-05  2.6378717534501810e-05  2.5482667665982581e-05  2.1884023380232418e-05  1.6636886179989685e-05  1.2602055492816748e-05  9.2925882772445413e-06  6.5528927560524203e-06  4.3823022048506806e-06  2.7706882398615975e-06  1.6561903140427668e-06  9.3780820677511981e-07  5.0461858165450433e-07  2.5947312303368230e-07  1.3124137379538221e-07  8.3686965595379014e-08  7.7517365426728958e-08  4.7200655738838947e-08  2.4038332743751957e-08  1.1170469987014192e-08  4.9098642991837543e-09  2.0746029840999276e-09  8.4962445887022992e-10  3.3882506990148182e-10  1.3197267244878633e-10  5.0313451813335484e-11  1.8806234036284738e-11  6.9014288303647624e-12  2.4895182962054450e-12  8.8367196291244378e-13  3.0894350017893369e-13  1.0646813025076692e-13  3.6126708675195691e-14  1.1565662159509786e-14  0.0000000000000000e+00  6.0000000000000002e-05  5.4417803268362258e-05  5.1091828861698002e-05  4.7708898794434893e-05  4.3943104788434314e-05  4.0057280110488189e-05  3.6452241921937990e-05  3.3435393290948143e-05  3.1136166577848386e-05  2.9524388572674373e-05  2.8475678690879370e-05  2.7837073050395995e-05  2.7469663987696030e-05  2.7265434557216739e-05  2.7144757940092470e-05  2.7041095218689129e-05  2.6875509485995828e-05  2.6514179228743020e-05  2.5616745234161114e-05  2.2267243412504629e-05  1.7263182755883788e-05  1.3148893521469186e-05  9.7293378359931041e-06  6.8813879435506619e-06  4.6149351484403772e-06  2.9256089120544182e-06  1.7532698892712750e-06  9.9518471784952275e-07  5.3670681386355509e-07  2.7650262481595378e-07  1.3974207334978420e-07  8.6811844900186568e-08  7.8688692175854765e-08  4.7765987935602218e-08  2.4288763045238588e-08  1.1279679421902637e-08  4.9567023484046784e-09  2.0942720079437718e-09  8.5769760720909370e-10  3.4206369671250011e-10  1.3324345026126299e-10  5.0801701375800342e-11  1.8990137668751930e-11  6.9694152816118894e-12  2.5142139759690646e-12  8.9249539459558816e-13  3.1204727997335211e-13  1.0754404887545334e-13  3.6494721320938864e-14  1.1690476724003461e-14  0.0000000000000000e+00  6.0000000000000002e-05  5.4667402164560697e-05  5.1351124611371315e-05  4.7962035395274303e-05  4.4181669838628821e-05  4.0276803588161913e-05  3.6651615930722887e-05  3.3616269335256285e-05  3.1301893539389219e-05  2.9678857050013576e-05  2.8622457327786831e-05  2.7978975381337949e-05  2.7608672349431576e-05  2.7402826872820170e-05  2.7281300637830150e-05  2.7177217632872824e-05  2.7011444620871119e-05  2.6650427127630754e-05  2.5753882500915056e-05  2.2624952270825151e-05  1.7851119894583440e-05  1.3683701097932901e-05  1.0163600799252517e-05  7.2113024277619658e-06  4.8503024638799047e-06  3.0833021835010905e-06  1.8526101543462752e-06  1.0541781382089233e-06  5.6984493453027108e-07  2.9416312211708111e-07  1.4860366850074318e-07  9.0279656259437094e-08  8.0017762503186254e-08  4.8376006316200262e-08  2.4551016867531986e-08  1.1392169203820755e-08  5.0045463804588723e-09  2.1142829036205786e-09  8.6589596423273083e-10  3.4535004698409242e-10  1.3453265861740727e-10  5.1297048382087794e-11  1.9176744299908470e-11  7.0384160064195685e-12  2.5392841512443862e-12  9.0145486075045438e-13  3.1519969295547867e-13  1.0863708984151820e-13  3.6868659725264725e-14  1.1816984899922484e-14  0.0000000000000000e+00  6.0000000000000002e-05  5.4910859303391302e-05  5.1609503827230234e-05  4.8215781150190530e-05  4.4421281495921306e-05  4.0497450799934927e-05  3.6852066964860678e-05  3.3798137220593033e-05  3.1468524442836907e-05  2.9834154625462603e-05  2.8770008524539731e-05  2.8121611342796157e-05  2.7748389556518251e-05  2.7540913331066376e-05  2.7418529454205241e-05  2.7314023278493848e-05  2.7148072883120300e-05  2.6787461497742405e-05  2.5893843374611671e-05  2.2960802419624904e-05  1.8402243029579555e-05  1.4205187005399524e-05  1.0594457061160474e-05  7.5420948452943838e-06  5.0881177834492352e-06  3.2436357249385703e-06  1.9541627143570366e-06  1.1147798574784214e-06  6.0403933836362884e-07  3.1246413737137700e-07  1.5783571826583983e-07  9.4072567120416244e-08  8.1505841827449858e-08  4.9030798884473451e-08  2.4825044918362607e-08  1.1507902341894680e-08  5.0533763552582935e-09  2.1346259196358794e-09  8.7421507027748122e-10  3.4868216977322764e-10  1.3583947381130176e-10  5.1799155404403814e-11  1.9365919342126661e-11  7.1083785997031282e-12  2.5647088612788359e-12  9.1054291138692624e-13  3.1839801045859832e-13  1.0974627088397300e-13  3.7248174557486140e-14  1.1945067633346527e-14  0.0000000000000000e+00  6.0000000000000002e-05  5.5148204833054463e-05  5.1866994675846044e-05  4.8470151414588639e-05  4.4661950618185723e-05  4.0719229736151185e-05  3.7053600701498186e-05  3.3981000906256026e-05  3.1636062226099761e-05  2.9990283826142221e-05  2.8918334799949144e-05  2.8264983635328610e-05  2.7888818531600286e-05  2.7679697039115623e-05  2.7556447616352019e-05  2.7451515417378023e-05  2.7285397200644344e-05  2.6925282942940396e-05  2.6036407111367251e-05  2.3277936535190922e-05  1.8918993639008649e-05  1.4712399687701244e-05  1.1021112832569209e-05  7.8732834805529277e-06  5.3281299392328072e-06  3.4065007548481895e-06  2.0578955198228499e-06  1.1769924042785418e-06  6.3930366979298487e-07  3.3141959983294029e-07  1.6744947455414206e-07  9.8178511644790512e-08  8.3153873987846107e-08  4.9730316650652062e-08  2.5110767602666262e-08  1.1626840341518533e-08  5.1031745615575988e-09  2.1552930166576089e-09  8.8265135862668415e-10  3.5205852560172495e-10  1.3716324973022373e-10  5.2307758454924214e-11  1.9557557614115056e-11  7.1792621223905855e-12  2.5904725139128303e-12  9.1975372673628474e-13  3.2164010070909946e-13  1.1087082453787194e-13  3.7632993018570099e-14  1.2074636769177790e-14  0.0000000000000000e+00  6.0000000000000002e-05  5.5379553494834790e-05  5.2123635308046028e-05  4.8725164391353142e-05  4.4903688749636663e-05  4.0942148596343714e-05  3.7256223057995797e-05  3.4164864705795255e-05  3.1804510237410525e-05  3.0147247569658795e-05  2.9067438995934237e-05  2.8409095201623771e-05  2.8029962367612984e-05  2.7819181221251546e-05  2.7695058433912248e-05  2.7589697369344318e-05  2.7423420509436620e-05  2.7063892132367484e-05  2.6181369387954227e-05  2.3579057356912371e-05  1.9404212056189603e-05  1.5204733327282816e-05  1.1442909979780398e-05  8.2044525371041097e-06  5.5701258745770021e-06  3.5718127652034318e-06  2.1637924837946417e-06  1.2408286974214242e-06  6.7565810941719859e-07  3.5104732557851709e-07  1.7745780584749723e-07  1.0258999803171763e-07  8.4962503120207913e-08  5.0474372000040782e-08  2.5408074131157548e-08  1.1748942034543442e-08  5.1539248664370832e-09  2.1762774787776109e-09  8.9120197305744429e-10  3.5547790568888984e-10  1.3850348354814148e-10  5.2822652882742384e-11  1.9751577702052887e-11  7.2510349015036670e-12  2.6165630461862398e-12  9.2908280344694211e-13  3.2492431370735145e-13  1.1201015663230456e-13  3.8022904044125237e-14  1.2205628908553048e-14  0.0000000000000000e+00  6.0000000000000002e-05  5.5605087766689506e-05  5.2379473530745547e-05  4.8980841113793661e-05  4.5146508160360685e-05  4.1166215810774787e-05  3.7459940174961655e-05  3.4349733238211426e-05  3.1973872171661763e-05  3.0305049101484528e-05  2.9217324225584215e-05  2.8553949188372923e-05  2.8171824302254247e-05  2.7959369202828748e-05  2.7834365289158725e-05  2.7728572505998866e-05  2.7562145749673122e-05  2.7203289598791003e-05  2.6328542630573320e-05  2.3866491841255323e-05  1.9860852622708879e-05  1.5681918021802095e-05  1.1859334516796304e-05  8.5352593290356817e-06  5.8139349644247503e-06  3.7395137478367419e-06  2.2718544479621911e-06  1.3063123634367799e-06  7.1312941637144786e-07  3.7136898095025606e-07  1.8787532728738547e-07  1.0730326511512800e-07  8.6932094461212812e-08  5.1262636868878771e-08  2.5716821869704165e-08  1.1874162651212623e-08  5.2056121110698298e-09  2.1975735992380064e-09  8.9986462017282836e-10  3.5893936658040349e-10  1.3985978796930760e-10  5.3343681969540663e-11  1.9947917402395556e-11  7.3236727532667067e-12  2.6429712467352154e-12  9.3852670140117949e-13  3.2824938839486790e-13  1.1316381283578346e-13  3.8417746381771530e-14  1.2338000463267073e-14  0.0000000000000000e+00  6.0000000000000002e-05  5.5825044043370664e-05  5.2634566538054708e-05  4.9237205416482736e-05  4.5390421874031596e-05  4.1391440056272005e-05  3.7664758401325129e-05  3.4535611387245410e-05  3.2144152017745189e-05  3.0463691943354379e-05  2.9367993830455975e-05  2.8699548914968550e-05  2.8314407697040065e-05  2.8100264397095301e-05  2.7974371628870672e-05  2.7868144245653973e-05  2.7701575863047370e-05  2.7343475594076148e-05  2.6477755797412506e-05  2.4142248328487216e-05  2.0291826143833474e-05  1.6143996473410657e-05  1.2270023526267403e-05  8.8654416981463005e-06  6.0594341037758370e-06  3.9095753003404484e-06  2.3821009423462148e-06  1.3734786751161082e-06  7.5175140555041636e-07  3.9241032099537653e-07  1.9871863534923957e-07  1.1231768886289056e-07  8.9062751146708070e-08  5.2094640830723039e-08  2.6036835914836641e-08  1.2002453096754388e-08  5.2582216270909866e-09  2.2191764269455783e-09  9.0863745000265431e-10  3.6244217725894155e-10  1.4123186877409491e-10  5.3870727707553239e-11  2.0146530038637849e-11  7.3971575477703724e-12  2.6696902087383685e-12  9.4808283941961050e-13  3.3161437778482222e-13  1.1433145168810895e-13  3.8817398983147255e-14  1.2471723678205845e-14  0.0000000000000000e+00  6.0000000000000002e-05  5.6039701351900903e-05  5.2888980665496236e-05  4.9494283893827626e-05  4.5635443685218197e-05  4.1617830267207462e-05  3.7870684281084637e-05  3.4722504267348131e-05  3.2315354014949413e-05  3.0623179850707326e-05  2.9519451345435554e-05  2.8845897847780287e-05  2.8457716020096572e-05  2.8241870294352639e-05  2.8115080957629971e-05  2.8008416049160032e-05  2.7841713791064429e-05  2.7484449990587622e-05  2.6628853769354452e-05  2.4408066519314638e-05  2.0699918253917842e-05  1.6591292286380223e-05  1.2674770169322007e-05  9.1948252663909138e-06  6.3065531970057160e-06  4.0820022621017007e-06  2.4945724321416364e-06  1.4423758693420065e-06  7.9156568778392509e-07  4.1420159258947410e-07  2.1000659786066129e-07  1.1763537009159965e-07  9.1354325151278655e-08  5.2969769189707567e-08  2.6367908883097505e-08  1.2133759401907807e-08  5.3117388525556723e-09  2.2410815626395356e-09  9.1751895958075165e-10  3.6598577637336253e-10  1.4261950665640254e-10  5.4403703341913083e-11  2.0347381484074670e-11  7.4714760493538089e-12  2.6967148881826976e-12  9.5774933038320100e-13  3.3501858856863144e-13  1.1551282285692896e-13  3.9221773259464826e-14  1.2606783436366976e-14  0.0000000000000000e+00  6.0000000000000002e-05  5.6249372182738164e-05  5.3142791142818385e-05  4.9752105846449275e-05  4.5881588167480449e-05  4.1845395642318905e-05  3.8077724541419660e-05  3.4910417195159668e-05  3.2487482616809298e-05  3.0783516777548251e-05  2.9671700469790503e-05  2.8992999578985145e-05  2.8601752831995653e-05  2.8384190453013923e-05  2.8256496832268074e-05  2.8149391416477261e-05  2.7982562474086721e-05  2.7626212219116845e-05  2.6781696467752729e-05  2.4665460634431215e-05  2.1087752661899775e-05  1.7024374773969255e-05  1.3073526710285181e-05  9.5233303133164499e-06  6.5552808357970256e-06  4.2568366824796217e-06  2.6093328822543612e-06  1.5130667131761107e-06  8.3262258130895552e-07  4.3677804422114497e-07  2.2176067675515286e-07  1.2326085525125595e-07  9.3806421228364958e-08  5.3887261170654704e-08  2.6709800903894714e-08  1.2268022321884698e-08  5.3661490302783030e-09  2.2632849956434498e-09  9.2650791519966626e-10  3.6956973766984139e-10  1.4402254253385161e-10  5.4942547339125255e-11  2.0550447754713648e-11  7.5466189794929056e-12  2.7240417470699005e-12  9.6752484812760749e-13  3.3846153238483387e-13  1.1670774960140974e-13  3.9630806837010530e-14  1.2743174696297791e-14  0.0000000000000000e+00  6.0000000000000002e-05  5.6454395085280503e-05  5.3396081829520904e-05  5.0010703215592633e-05  4.6128870673275633e-05  4.2074145647952179e-05  3.8285886081903953e-05  3.5099355665524847e-05  3.2660542461079388e-05  3.0944706847393063e-05  2.9824745043285151e-05  2.9140857809113339e-05  2.8746521774066867e-05  2.8527228492202396e-05  2.8398622857243048e-05  2.8291073883846050e-05  2.8124124850981205e-05  2.7768761235515340e-05  2.6936157789685354e-05  2.4915756404282526e-05  2.1457780578068452e-05  1.7444024029228332e-05  1.3466405691917429e-05  9.8509781798021630e-06  6.8056700431308020e-06  4.4341620080134925e-06  2.7264725455213699e-06  1.5856302473697761e-06  8.7498214603107607e-07  4.6018051227728993e-07  2.3400527421041524e-07  1.2920095611541361e-07  9.6418393173093307e-08  5.4846208291391193e-08  2.7062239807098938e-08  1.2405177062560094e-08  5.4214369744468868e-09  2.2857829738092244e-09  9.3560328984869949e-10  3.7319374206979516e-10  1.4544086566718878e-10  5.5487218507773586e-11  2.0755713062428020e-11  7.6225802591701697e-12  2.7516684650957308e-12  9.7740851993570012e-13  3.4194288647913089e-13  1.1791611462208914e-13  4.0044458519399719e-14  1.2880900440290594e-14  0.0000000000000000e+00  6.0000000000000002e-05  5.6655128733593283e-05  5.3648944923516147e-05  5.0270110505891721e-05  4.6377307326552851e-05  4.2304090018207251e-05  3.8495175964597782e-05  3.5289325331237529e-05  3.2834538344733691e-05  3.1106754329195051e-05  2.9978589026431603e-05  2.9289476332621631e-05  2.8892026558721589e-05  2.8670988085596722e-05  2.8541462680767123e-05  2.8433467021440462e-05  2.8266403859259823e-05  2.7912095509597653e-05  2.7092124428378853e-05  2.5160122637080605e-05  2.1812285095176383e-05  1.7851198757684677e-05  1.3853679553510715e-05  1.0177897171786371e-05  7.0578440143662615e-06  4.6141074236654282e-06  2.8461109223000887e-06  1.6601636692124547e-06  9.1871531527081820e-07  4.8445606852447683e-07  2.4676809925181582e-07  1.3546464386316885e-07  9.9189332024977138e-08  5.5845553000172638e-08  2.7424921497834291e-08  1.2545153116192314e-08  5.4775868939287881e-09  2.3085719006216827e-09  9.4480421299318533e-10  3.7685755513192595e-10  1.4687440405077769e-10  5.6037692049560081e-11  2.0963168239372212e-11  7.6993563959205794e-12  2.7795937064889972e-12  9.8739983963955710e-13  3.4546246192149736e-13  1.1913784863428907e-13  4.0462704220051050e-14  1.3019970034719886e-14  0.0000000000000000e+00  6.0000000000000002e-05  5.6851947216161452e-05  5.3901480637861126e-05  5.0530364696882041e-05  4.6626915008797833e-05  4.2535238752391614e-05  3.8705601404832269e-05  3.5480331985842238e-05  3.3009475203084126e-05  3.1269663617343506e-05  3.0133236484113702e-05  2.9438859025929435e-05  2.9038270961409108e-05  2.881547295628385