<?xml version="1.0"?>
<VTKFile type="UnstructuredGrid"  version="0.1"  >
<UnstructuredGrid>
<Piece  NumberOfPoints="2601" NumberOfCells="5000">
<Points>
<DataArray  type="Float64"  NumberOfComponents="3"  format="ascii">-1 0 0  -0.96 0 0  -0.92 0 0  -0.88 0 0  -0.84 0 0  -0.8 0 0  -0.76 0 0  -0.72 0 0  -0.6799999999999999 0 0  -0.64 0 0  -0.6 0 0  -0.5600000000000001 0 0  -0.52 0 0  -0.48 0 0  -0.4399999999999999 0 0  -0.4 0 0  -0.36 0 0  -0.32 0 0  -0.28 0 0  -0.24 0 0  -0.2 0 0  -0.16 0 0  -0.12 0 0  -0.07999999999999996 0 0  -0.04000000000000004 0 0  0 0 0  0.04000000000000004 0 0  0.08000000000000007 0 0  0.1200000000000001 0 0  0.1599999999999999 0 0  0.2 0 0  0.24 0 0  0.28 0 0  0.3200000000000001 0 0  0.3600000000000001 0 0  0.3999999999999999 0 0  0.4399999999999999 0 0  0.48 0 0  0.52 0 0  0.5600000000000001 0 0  0.6000000000000001 0 0  0.6399999999999999 0 0  0.6799999999999999 0 0  0.72 0 0  0.76 0 0  0.8 0 0  0.8400000000000001 0 0  0.8799999999999999 0 0  0.9199999999999999 0 0  0.96 0 0  1 0 0  -1 0.016 0  -0.96 0.016 0  -0.92 0.016 0  -0.88 0.016 0  -0.84 0.016 0  -0.8 0.016 0  -0.76 0.016 0  -0.72 0.016 0  -0.6799999999999999 0.016 0  -0.64 0.016 0  -0.6 0.016 0  -0.5600000000000001 0.016 0  -0.52 0.016 0  -0.48 0.016 0  -0.4399999999999999 0.016 0  -0.4 0.016 0  -0.36 0.016 0  -0.32 0.016 0  -0.28 0.016 0  -0.24 0.016 0  -0.2 0.016 0  -0.16 0.016 0  -0.12 0.016 0  -0.07999999999999996 0.016 0  -0.04000000000000004 0.016 0  0 0.016 0  0.04000000000000004 0.016 0  0.08000000000000007 0.016 0  0.1200000000000001 0.016 0  0.1599999999999999 0.016 0  0.2 0.016 0  0.24 0.016 0  0.28 0.016 0  0.3200000000000001 0.016 0  0.3600000000000001 0.016 0  0.3999999999999999 0.016 0  0.4399999999999999 0.016 0  0.48 0.016 0  0.52 0.016 0  0.5600000000000001 0.016 0  0.6000000000000001 0.016 0  0.6399999999999999 0.016 0  0.6799999999999999 0.016 0  0.72 0.016 0  0.76 0.016 0  0.8 0.016 0  0.8400000000000001 0.016 0  0.8799999999999999 0.016 0  0.9199999999999999 0.016 0  0.96 0.016 0  1 0.016 0  -1 0.032 0  -0.96 0.032 0  -0.92 0.032 0  -0.88 0.032 0  -0.84 0.032 0  -0.8 0.032 0  -0.76 0.032 0  -0.72 0.032 0  -0.6799999999999999 0.032 0  -0.64 0.032 0  -0.6 0.032 0  -0.5600000000000001 0.032 0  -0.52 0.032 0  -0.48 0.032 0  -0.4399999999999999 0.032 0  -0.4 0.032 0  -0.36 0.032 0  -0.32 0.032 0  -0.28 0.032 0  -0.24 0.032 0  -0.2 0.032 0  -0.16 0.032 0  -0.12 0.032 0  -0.07999999999999996 0.032 0  -0.04000000000000004 0.032 0  0 0.032 0  0.04000000000000004 0.032 0  0.08000000000000007 0.032 0  0.1200000000000001 0.032 0  0.1599999999999999 0.032 0  0.2 0.032 0  0.24 0.032 0  0.28 0.032 0  0.3200000000000001 0.032 0  0.3600000000000001 0.032 0  0.3999999999999999 0.032 0  0.4399999999999999 0.032 0  0.48 0.032 0  0.52 0.032 0  0.5600000000000001 0.032 0  0.6000000000000001 0.032 0  0.6399999999999999 0.032 0  0.6799999999999999 0.032 0  0.72 0.032 0  0.76 0.032 0  0.8 0.032 0  0.8400000000000001 0.032 0  0.8799999999999999 0.032 0  0.9199999999999999 0.032 0  0.96 0.032 0  1 0.032 0  -1 0.04800000000000001 0  -0.96 0.04800000000000001 0  -0.92 0.04800000000000001 0  -0.88 0.04800000000000001 0  -0.84 0.04800000000000001 0  -0.8 0.04800000000000001 0  -0.76 0.04800000000000001 0  -0.72 0.04800000000000001 0  -0.6799999999999999 0.04800000000000001 0  -0.64 0.04800000000000001 0  -0.6 0.04800000000000001 0  -0.5600000000000001 0.04800000000000001 0  -0.52 0.04800000000000001 0  -0.48 0.04800000000000001 0  -0.4399999999999999 0.04800000000000001 0  -0.4 0.04800000000000001 0  -0.36 0.04800000000000001 0  -0.32 0.04800000000000001 0  -0.28 0.04800000000000001 0  -0.24 0.04800000000000001 0  -0.2 0.04800000000000001 0  -0.16 0.04800000000000001 0  -0.12 0.04800000000000001 0  -0.07999999999999996 0.04800000000000001 0  -0.04000000000000004 0.04800000000000001 0  0 0.04800000000000001 0  0.04000000000000004 0.04800000000000001 0  0.08000000000000007 0.04800000000000001 0  0.1200000000000001 0.04800000000000001 0  0.1599999999999999 0.04800000000000001 0  0.2 0.04800000000000001 0  0.24 0.04800000000000001 0  0.28 0.04800000000000001 0  0.3200000000000001 0.04800000000000001 0  0.3600000000000001 0.04800000000000001 0  0.3999999999999999 0.04800000000000001 0  0.4399999999999999 0.04800000000000001 0  0.48 0.04800000000000001 0  0.52 0.04800000000000001 0  0.5600000000000001 0.04800000000000001 0  0.6000000000000001 0.04800000000000001 0  0.6399999999999999 0.04800000000000001 0  0.6799999999999999 0.04800000000000001 0  0.72 0.04800000000000001 0  0.76 0.04800000000000001 0  0.8 0.04800000000000001 0  0.8400000000000001 0.04800000000000001 0  0.8799999999999999 0.04800000000000001 0  0.9199999999999999 0.04800000000000001 0  0.96 0.04800000000000001 0  1 0.04800000000000001 0  -1 0.064 0  -0.96 0.064 0  -0.92 0.064 0  -0.88 0.064 0  -0.84 0.064 0  -0.8 0.064 0  -0.76 0.064 0  -0.72 0.064 0  -0.6799999999999999 0.064 0  -0.64 0.064 0  -0.6 0.064 0  -0.5600000000000001 0.064 0  -0.52 0.064 0  -0.48 0.064 0  -0.4399999999999999 0.064 0  -0.4 0.064 0  -0.36 0.064 0  -0.32 0.064 0  -0.28 0.064 0  -0.24 0.064 0  -0.2 0.064 0  -0.16 0.064 0  -0.12 0.064 0  -0.07999999999999996 0.064 0  -0.04000000000000004 0.064 0  0 0.064 0  0.04000000000000004 0.064 0  0.08000000000000007 0.064 0  0.1200000000000001 0.064 0  0.1599999999999999 0.064 0  0.2 0.064 0  0.24 0.064 0  0.28 0.064 0  0.3200000000000001 0.064 0  0.3600000000000001 0.064 0  0.3999999999999999 0.064 0  0.4399999999999999 0.064 0  0.48 0.064 0  0.52 0.064 0  0.5600000000000001 0.064 0  0.6000000000000001 0.064 0  0.6399999999999999 0.064 0  0.6799999999999999 0.064 0  0.72 0.064 0  0.76 0.064 0  0.8 0.064 0  0.8400000000000001 0.064 0  0.8799999999999999 0.064 0  0.9199999999999999 0.064 0  0.96 0.064 0  1 0.064 0  -1 0.08 0  -0.96 0.08 0  -0.92 0.08 0  -0.88 0.08 0  -0.84 0.08 0  -0.8 0.08 0  -0.76 0.08 0  -0.72 0.08 0  -0.6799999999999999 0.08 0  -0.64 0.08 0  -0.6 0.08 0  -0.5600000000000001 0.08 0  -0.52 0.08 0  -0.48 0.08 0  -0.4399999999999999 0.08 0  -0.4 0.08 0  -0.36 0.08 0  -0.32 0.08 0  -0.28 0.08 0  -0.24 0.08 0  -0.2 0.08 0  -0.16 0.08 0  -0.12 0.08 0  -0.07999999999999996 0.08 0  -0.04000000000000004 0.08 0  0 0.08 0  0.04000000000000004 0.08 0  0.08000000000000007 0.08 0  0.1200000000000001 0.08 0  0.1599999999999999 0.08 0  0.2 0.08 0  0.24 0.08 0  0.28 0.08 0  0.3200000000000001 0.08 0  0.3600000000000001 0.08 0  0.3999999999999999 0.08 0  0.4399999999999999 0.08 0  0.48 0.08 0  0.52 0.08 0  0.5600000000000001 0.08 0  0.6000000000000001 0.08 0  0.6399999999999999 0.08 0  0.6799999999999999 0.08 0  0.72 0.08 0  0.76 0.08 0  0.8 0.08 0  0.8400000000000001 0.08 0  0.8799999999999999 0.08 0  0.9199999999999999 0.08 0  0.96 0.08 0  1 0.08 0  -1 0.09600000000000002 0  -0.96 0.09600000000000002 0  -0.92 0.09600000000000002 0  -0.88 0.09600000000000002 0  -0.84 0.09600000000000002 0  -0.8 0.09600000000000002 0  -0.76 0.09600000000000002 0  -0.72 0.09600000000000002 0  -0.6799999999999999 0.09600000000000002 0  -0.64 0.09600000000000002 0  -0.6 0.09600000000000002 0  -0.5600000000000001 0.09600000000000002 0  -0.52 0.09600000000000002 0  -0.48 0.09600000000000002 0  -0.4399999999999999 0.09600000000000002 0  -0.4 0.09600000000000002 0  -0.36 0.09600000000000002 0  -0.32 0.09600000000000002 0  -0.28 0.09600000000000002 0  -0.24 0.09600000000000002 0  -0.2 0.09600000000000002 0  -0.16 0.09600000000000002 0  -0.12 0.09600000000000002 0  -0.07999999999999996 0.09600000000000002 0  -0.04000000000000004 0.09600000000000002 0  0 0.09600000000000002 0  0.04000000000000004 0.09600000000000002 0  0.08000000000000007 0.09600000000000002 0  0.1200000000000001 0.09600000000000002 0  0.1599999999999999 0.09600000000000002 0  0.2 0.09600000000000002 0  0.24 0.09600000000000002 0  0.28 0.09600000000000002 0  0.3200000000000001 0.09600000000000002 0  0.3600000000000001 0.09600000000000002 0  0.3999999999999999 0.09600000000000002 0  0.4399999999999999 0.09600000000000002 0  0.48 0.09600000000000002 0  0.52 0.09600000000000002 0  0.5600000000000001 0.09600000000000002 0  0.6000000000000001 0.09600000000000002 0  0.6399999999999999 0.09600000000000002 0  0.6799999999999999 0.09600000000000002 0  0.72 0.09600000000000002 0  0.76 0.09600000000000002 0  0.8 0.09600000000000002 0  0.8400000000000001 0.09600000000000002 0  0.8799999999999999 0.09600000000000002 0  0.9199999999999999 0.09600000000000002 0  0.96 0.09600000000000002 0  1 0.09600000000000002 0  -1 0.112 0  -0.96 0.112 0  -0.92 0.112 0  -0.88 0.112 0  -0.84 0.112 0  -0.8 0.112 0  -0.76 0.112 0  -0.72 0.112 0  -0.6799999999999999 0.112 0  -0.64 0.112 0  -0.6 0.112 0  -0.5600000000000001 0.112 0  -0.52 0.112 0  -0.48 0.112 0  -0.4399999999999999 0.112 0  -0.4 0.112 0  -0.36 0.112 0  -0.32 0.112 0  -0.28 0.112 0  -0.24 0.112 0  -0.2 0.112 0  -0.16 0.112 0  -0.12 0.112 0  -0.07999999999999996 0.112 0  -0.04000000000000004 0.112 0  0 0.112 0  0.04000000000000004 0.112 0  0.08000000000000007 0.112 0  0.1200000000000001 0.112 0  0.1599999999999999 0.112 0  0.2 0.112 0  0.24 0.112 0  0.28 0.112 0  0.3200000000000001 0.112 0  0.3600000000000001 0.112 0  0.3999999999999999 0.112 0  0.4399999999999999 0.112 0  0.48 0.112 0  0.52 0.112 0  0.5600000000000001 0.112 0  0.6000000000000001 0.112 0  0.6399999999999999 0.112 0  0.6799999999999999 0.112 0  0.72 0.112 0  0.76 0.112 0  0.8 0.112 0  0.8400000000000001 0.112 0  0.8799999999999999 0.112 0  0.9199999999999999 0.112 0  0.96 0.112 0  1 0.112 0  -1 0.128 0  -0.96 0.128 0  -0.92 0.128 0  -0.88 0.128 0  -0.84 0.128 0  -0.8 0.128 0  -0.76 0.128 0  -0.72 0.128 0  -0.6799999999999999 0.128 0  -0.64 0.128 0  -0.6 0.128 0  -0.5600000000000001 0.128 0  -0.52 0.128 0  -0.48 0.128 0  -0.4399999999999999 0.128 0  -0.4 0.128 0  -0.36 0.128 0  -0.32 0.128 0  -0.28 0.128 0  -0.24 0.128 0  -0.2 0.128 0  -0.16 0.128 0  -0.12 0.128 0  -0.07999999999999996 0.128 0  -0.04000000000000004 0.128 0  0 0.128 0  0.04000000000000004 0.128 0  0.08000000000000007 0.128 0  0.1200000000000001 0.128 0  0.1599
[...]
<PointData  Scalars="f_100"> 
<DataArray  type="Float64"  Name="f_100"  format="ascii">6.0000000000000002e-05  5.3689367450683068e-05  5.1355363174804363e-05  4.9261951447945469e-05  4.6805795627762881e-05  4.3926999939928377e-05  4.0799523355741699e-05  3.7683165141053106e-05  3.4824531361373457e-05  3.2395597496914315e-05  3.0471879975967951e-05  2.9043219002790129e-05  2.8042145425144868e-05  2.7374372586287797e-05  2.6940991821765315e-05  2.6648019677694871e-05  2.6402364708556729e-05  2.6084079058681957e-05  2.5427484030838823e-05  2.0750190962644053e-05  1.4895046955200089e-05  1.1813570708137753e-05  9.3612862899754493e-06  7.2593441366771903e-06  5.4515909479178177e-06  3.9406939582706682e-06  2.7328333974209981e-06  1.8158661522464644e-06  1.1568942180823226e-06  7.1180485328018964e-07  4.4609094762249165e-07  4.0729515339847023e-07  4.5004004730703455e-07  3.1631953126167946e-07  1.8852684634472274e-07  1.0317199816410863e-07  5.3535001984143520e-08  2.6708867836936114e-08  1.2900084207950054e-08  6.0552945426739573e-09  2.7694063343883100e-09  1.2364179247068525e-09  5.3968135312812789e-10  2.3061009573516820e-10  9.6583275449175359e-11  3.9689529707962638e-11  1.6018676290602341e-11  6.3544106462093586e-12  2.4718329809925314e-12  8.9170233802214005e-13  0.0000000000000000e+00  6.0000000000000002e-05  5.3964516080027407e-05  5.1621333545411505e-05  4.9519692709248487e-05  4.7053876989642451e-05  4.4162560335018167e-05  4.1020012092116158e-05  3.7887254901675212e-05  3.5012423432330509e-05  3.2568838434768577e-05  3.0632881921309149e-05  2.9194707791725537e-05  2.8186708846271106e-05  2.7514186794491754e-05  2.7077719019782307e-05  2.6782821389300430e-05  2.6535967176463852e-05  2.6216969078400995e-05  2.5547335134132974e-05  2.1293513629933525e-05  1.5656045462366179e-05  1.2435232752705388e-05  9.8637745554154472e-06  7.6594457981144259e-06  5.7613438784362765e-06  4.1719034219869199e-06  2.8984038729683320e-06  1.9293323912333315e-06  1.2312396305895795e-06  7.5830880911810317e-07  4.7346444847754224e-07  4.1368398528682128e-07  4.5305970015070350e-07  3.1877315726287790e-07  1.9003398060701481e-07  1.0401302984431284e-07  5.3978562104026389e-08  2.6933387503006626e-08  1.3009957983592246e-08  6.1074921529591413e-09  2.7935434832461339e-09  1.2473038119867090e-09  5.4447745889973535e-10  2.3267723435377223e-10  9.7455945834481926e-11  4.0050794311629684e-11  1.6165484704924819e-11  6.4130340891913494e-12  2.4948791647210764e-12  9.0079309649809818e-13  0.0000000000000000e+00  6.0000000000000002e-05  5.4235578878165392e-05  5.1886454962684494e-05  4.9778042851081397e-05  4.7303004786820914e-05  4.4399273913592864e-05  4.1241646823776662e-05  3.8092439885635188e-05  3.5201342288036758e-05  3.2743032824264826e-05  3.0794767335944782e-05  2.9347018856870694e-05  2.8332044951509866e-05  2.7654736188854605e-05  2.7215154940443731e-05  2.6918315626534151e-05  2.6670265865772703e-05  2.6350680643013607e-05  2.5671411544217540e-05  2.1790418782976219e-05  1.6410018557102764e-05  1.3054567503669546e-05  1.0369541645969598e-05  8.0650685150365329e-06  6.0771834879193000e-06  4.4088509411138498e-06  3.0688801630090269e-06  2.0466839468679015e-06  1.3084636353461451e-06  8.0681303893511730e-07  5.0205165450698669e-07  4.2229763709925698e-07  4.5681098260049965e-07  3.2145512114565251e-07  1.9161031016469295e-07  1.0487706174940187e-07  5.4430879201940150e-08  2.7161654710543922e-08  1.3121549236321249e-08  6.1604972866562581e-09  2.8180601369487668e-09  1.2583656731755644e-09  5.4935362628025617e-10  2.3478004298808187e-10  9.8344175011608297e-11  4.0418706397216328e-11  1.6315077322756372e-11  6.4728018683579932e-12  2.5183867889307215e-12  9.1004023751286751e-13  0.0000000000000000e+00  6.0000000000000002e-05  5.4501757129186527e-05  5.2150690122294483e-05  5.0036999941450591e-05  4.7553186814561518e-05  4.4637150571669411e-05  4.1464436388643545e-05  3.8298726601073212e-05  3.5391291943544562e-05  3.2918182702590936e-05  3.0957537083550582e-05  2.9500152663125026e-05  2.8478154367209269e-05  2.7796021856698806e-05  2.7353301218265270e-05  2.7054504505495013e-05  2.6805262979464236e-05  2.6485207007848120e-05  2.5799446758285776e-05  2.2247163153039973e-05  1.7138044500223352e-05  1.3668208162182672e-05  1.0877133648547634e-05  8.4754447807109762e-06  6.3986942762346182e-06  4.6513106218797616e-06  3.2441371633475353e-06  2.1678482611201629e-06  1.3885220147446872e-06  8.5729340448552620e-07  5.3188785513900841e-07  4.3287269977717410e-07  4.6130615219112696e-07  3.2436896762236571e-07  1.9325645537306794e-07  1.0576394828494100e-07  5.4891736815485756e-08  2.7393516003077967e-08  1.3234767276322619e-08  6.2142607467746704e-09  2.8429310076546299e-09  1.2695910253471709e-09  5.5430389717683726e-10  2.3691576080318067e-10  9.9246717552955174e-11  4.0792717863110618e-11  1.6467218399463094e-11  6.5336146736893444e-12  2.5423144576187519e-12  9.1942458460574790e-13  0.0000000000000000e+00  6.0000000000000002e-05  5.4762490957239024e-05  5.2414017435160042e-05  5.0296565356500643e-05  4.7804431249190592e-05  4.4876199810323020e-05  4.1688389247832945e-05  3.8506121488082601e-05  3.5582276700996926e-05  3.3094290665008798e-05  3.1121192721729684e-05  2.9654110377447604e-05  2.8625038341662027e-05  2.7938045385261385e-05  2.7492159859958425e-05  2.7191390400456023e-05  2.6940960883233630e-05  2.6620544027816536e-05  2.5931171611877750e-05  2.2669311767506826e-05  1.7831000134800434e-05  1.4273711655209528e-05  1.1385271713571929e-05  8.8898830627385424e-06  6.7255133830624917e-06  4.8991058532352433e-06  3.4240999827039811e-06  2.2928019395770313e-06  1.4714147326372751e-06  9.0976062146401189e-07  5.6301864991485015e-07  4.4521735174870665e-07  4.6655562143991711e-07  3.2751742702709388e-07  1.9497283526586066e-07  1.0667355229109911e-07  5.5360957259688501e-08  2.7628847831310867e-08  1.3349539506217764e-08  6.2687432296947159e-09  2.8681359074397240e-09  1.2809699056801216e-09  5.5932351683571399e-10  2.3908218469865999e-10  1.0016257969114964e-10  4.1172391395944426e-11  1.6621719860164472e-11  6.5953932859283105e-12  2.5666291605209642e-12  9.2893130471097181e-13  0.0000000000000000e+00  6.0000000000000002e-05  5.5017415825002095e-05  5.2676429010421936e-05  5.0556743702053000e-05  4.8056746746731923e-05  4.5116430863730876e-05  4.1913513577343776e-05  3.8714630945430033e-05  3.5774301109492212e-05  3.3271359774191172e-05  3.1285736385105667e-05  2.9808893748714265e-05  2.8772698637911556e-05  2.8080808775440634e-05  2.7631733180464278e-05  2.7328975898962786e-05  2.7077362064819744e-05  2.6756689388875791e-05  2.6066321571767753e-05  2.3061742351447842e-05  1.8485459546066158e-05  1.4869106297555804e-05  1.1892804263018753e-05  9.3077511356509172e-06  7.0573181839388680e-06  5.1520956240718144e-06  3.6087280159553307e-06  2.4215537430886355e-06  1.5571697717179782e-06  9.6424704974610083e-07  5.9549426942750708e-07  4.5919255317050209e-07  4.7256781297807091e-07  3.3090242690331510e-07  1.9675966547131698e-07  1.0760573385386637e-07  5.5838392149817609e-08  2.7867550471466556e-08  1.3465807936875976e-08  6.3239134549779587e-09  2.8936587897872978e-09  1.2924943981661231e-09  5.6440870755418550e-10  2.4127756420539415e-10  1.0109097178100347e-10  4.1557379491700741e-11  1.6778432251273041e-11  6.6580747543565176e-12  2.5913046763478580e-12  9.3854906907982185e-13  0.0000000000000000e+00  6.0000000000000002e-05  5.5266326433705495e-05  5.2937929248869359e-05  5.0817542751866188e-05  4.8310142523915328e-05  4.5357852804318225e-05  4.2139817343051982e-05  3.8924261351927888e-05  3.5967369931453041e-05  3.3449393485178703e-05  3.1451170688925085e-05  2.9964505008883507e-05  2.8921137445729426e-05  2.8224314371077381e-05  2.7772023750584088e-05  2.7467263765174093e-05  2.7214469102386836e-05  2.6893641993809508e-05  2.6204641860779101e-05  2.3428691088463210e-05  1.9101237290496706e-05  1.5452765737483825e-05  1.2398698125527484e-05  9.7284727093045466e-06  7.3938226579509907e-06  5.4101689535934853e-06  3.7980074547795583e-06  2.5541361087546944e-06  1.6458348855903805e-06  1.0207999090704638e-06  6.2936752816241921e-07  4.7469872643575818e-07  4.7934915203827520e-07  3.3452509934567566e-07  1.9861695638358145e-07  1.0856034110434866e-07  5.6323914652765518e-08  2.8109543064378476e-08  1.3583526349267262e-08  6.3797466435454437e-09  2.9194869703114994e-09  1.3041582491236262e-09  5.6955648498525478e-10  2.4350051622307396e-10  1.0203126976006623e-10  4.1947407458253080e-11  1.6937237413481315e-11  6.7216093034149656e-12  2.6163202811192532e-12  9.4826937268659615e-13  0.0000000000000000e+00  6.0000000000000002e-05  5.5509146815481193e-05  5.3198533865981785e-05  5.1078973394741493e-05  4.8564628423688519e-05  4.5600474628785212e-05  4.2367308361951549e-05  3.9135019083485637e-05  3.6161488114446596e-05  3.3628395583267624e-05  3.1617498649572818e-05  3.0120946791693358e-05  2.9070357309336877e-05  2.8368564800974653e-05  2.7913034354107109e-05  2.7606256909944002e-05  2.7352284639983362e-05  2.7031401477843283e-05  2.6345890879950058e-05  2.3773816909271183e-05  1.9679923694596972e-05  1.6023398026383454e-05  1.2902043458423346e-05  1.0151530611873741e-05  7.7347785303434650e-06  5.6732438885765594e-06  3.9919485657836788e-06  2.6906014574364831e-06  1.7374737498164278e-06  1.0794780328510093e-06  6.6469355281469320e-07  4.9166626295821989e-07  4.8690413492039713e-07  3.3838578485240812e-07  2.0054451172666255e-07  1.0953720270970310e-07  5.6817413166474341e-08  2.8354759572351284e-08  1.3702657983402754e-08  6.4362232795222627e-09  2.9456104932411278e-09  1.3159565548622245e-09  5.7476450901931278e-10  2.4574995585311212e-10  1.0298298390429584e-10  4.2342259643653596e-11  1.7098042548655942e-11  6.7859578291697159e-12  2.6416597032576563e-12  9.5808598260098013e-13  0.0000000000000000e+00  6.0000000000000002e-05  5.5745905604730246e-05  5.3458269208913397e-05  5.1341049584886722e-05  4.8820214967059578e-05  4.5844305328140609e-05  4.2595994352054195e-05  3.9346910526668182e-05  3.6356660767571351e-05  3.3808370132599441e-05  3.1784723619033359e-05  3.0278222065779950e-05  2.9220361068055014e-05  2.8513562931362250e-05  2.8054767952715914e-05  2.7745958366418979e-05  2.7490811368542051e-05  2.7169967832601880e-05  2.6489842313736064e-05  2.4100271315536728e-05  2.0224018338247124e-05  1.6580059386458787e-05  1.3402062931372390e-05  1.0576473177583551e-05  8.0799790332082094e-06  5.9412691048742463e-06  4.1905856939810097e-06  2.8310212130518649e-06  1.8321645773844455e-06  1.1403505855824399e-06  7.0153033838900212e-07  5.1004872631743558e-07  4.9523543256015616e-07  3.4248403349395451e-07  2.0254192761931292e-07  1.1053612180814606e-07  5.7318786180543514e-08  2.8603145487923044e-08  1.3823173657378561e-08  6.4933281030719529e-09  2.9720216164393088e-09  1.3278855079644435e-09  5.8003096273440014e-10  2.4802504028789654e-10  1.0394573349754172e-10  4.2741768277782306e-11  1.7260775415362455e-11  6.8510898731078631e-12  2.6673102782480632e-12  9.6799449129563857e-13  0.0000000000000000e+00  6.0000000000000002e-05  5.5976715639455946e-05  5.3717171766776503e-05  5.1603788291593758e-05  4.9076913392836967e-05  4.6089353944329688e-05  4.2825882972927444e-05  3.9559942089428392e-05  3.6552893141666058e-05  3.3989321433606798e-05  3.1952849230849591e-05  3.0436334079658548e-05  2.9371151807570221e-05  2.8659311826924536e-05  2.8197227657260012e-05  2.7886371270147422e-05  2.7630052011231095e-05  2.7309341119720740e-05  2.6636286232031794e-05  2.4410766666803717e-05  2.0736423831039921e-05  1.7122159659933382e-05  1.3898121516897879e-05  1.1002922084960276e-05  8.4292641029495997e-06  6.2142270209233319e-06  4.3939788534436979e-06  2.9754863836280601e-06  1.9300001349028893e-06  1.2034968855608970e-06  7.3993966127600471e-07  5.2981797311684541e-07  5.0434400227229615e-07  3.4681860417642219e-07  2.0460859222603398e-07  1.1155687118118679e-07  5.7827938115192054e-08  2.8854655158956468e-08  1.3945050237446026e-08  6.5510492913323774e-09  2.9987143928170399e-09  1.3399421911874003e-09  5.8535445413019223e-10  2.5032512329044075e-10  1.0491922629473876e-10  4.3145804431076874e-11  1.7425380438164737e-11  6.9169819821845061e-12  2.6932622646880970e-12  9.7799195532295598e-13  0.0000000000000000e+00  6.0000000000000002e-05  5.6201757181258237e-05  5.3975287800586562e-05  5.1867209445461276e-05  4.9334735686610541e-05  4.6335629615598714e-05  4.3056981858496738e-05  3.9774120209551598e-05  3.6750190612715396e-05  3.4171253987786026e-05  3.2121879355559194e-05  3.0595286316460444e-05  2.9522732819914420e-05  2.8805814718847859e-05  2.8340416704243427e-05  2.8027498842881636e-05  2.7770009312236512e-05  2.7449521258007475e-05  2.6785029440495721e-05  2.4707639376226086e-05  2.1220156154839161e-05  1.7649451866601536e-05  1.4389735352387901e-05  1.1430580687952629e-05  8.7825263567053680e-06  6.4921378107985952e-06  4.6022162692212859e-06  3.1241090665590743e-06  2.0310885751878855e-06  1.2690068653398352e-06  7.7998812553773501e-07  5.5096064918122479e-07  5.1422919021212785e-07  3.5138746271613806e-07  2.0674368606105513e-07  1.1259918949013340e-07  5.8344775971883925e-08  2.9109249619236210e-08  1.4068269394626299e-08  6.6093777925317464e-09  3.0256843301306886e-09  1.3521244100470208e-09  5.9073393635414713e-10  2.5264971826336175e-10  1.0590324187046834e-10  4.3554270688132744e-11  1.7591815556670899e-11  6.9836163813892521e-12  2.7195082908443508e-12  9.8807660342902838e-13  0.0000000000000000e+00  6.0000000000000002e-05  5.6421264158178635e-05  5.4232673039905863e-05  5.2131335879235008e-05  4.9593694600127386e-05  4.6583141612371824e-05  4.3289298643446295e-05  3.9989451361244793e-05  3.6948558667927172e-05  3.4354172468529147e-05  3.2291818063941559e-05  3.0755082456691553e-05  2.9675107570598201e-05  2.8953074978621092e-05  2.8484338436580298e-05  2.8169344379401529e-05  2.7910686028266328e-05  2.7590507870396845e-05  2.6935895278100612e-05  2.4992906511223458e-05  2.1678184730381641e-05  1.8162008203363197e-05  1.4876578943430280e-05  1.1859242305413314e-05  9.1397174740619854e-06  6.7750639696833131e-06  4.8154175138353693e-06  3.2770245244197190e-06  2.1355547655956976e-06  1.3369819154503672e-06  8.2174824421704012e-07  5.7347567975868664e-07  5.2488881350344655e-07  3.5618777936825001e-07  2.0894618299750845e-07  1.1366277843207714e-07  5.8869206658558722e-08  2.9366894833958901e-08  1.4192816595279252e-08  6.6683067848464556e-09  3.0529281145129917e-09  1.3644305568209439e-09  5.9616864293453744e-10  2.5499846828321244e-10  1.0689761811619886e-10  4.3967095210172991e-11  1.7760049673353706e-11  7.0509798991388762e-12  2.7460429067274869e-12  9.9824760113083177e-13  0.0000000000000000e+00  6.0000000000000002e-05  5.6635512931414149e-05  5.4489392408919716e-05  5.2396193261940601e-05  4.9853803662056891e-05  4.6831899365113842e-05  4.3522840984316170e-05  4.0205942060219938e-05  3.7148002894039552e-05  3.4538081696965328e-05  3.2462669596699338e-05  3.0915726347584575e-05  2.9828279671613260e-05  2.9101096096549949e-05  2.8628996287843221e-05  2.8311911236811102e-05  2.8052084922229952e-05  2.7732300179049902e-05  2.7088723017335356e-05  2.5268315454808809e-05  2.2113349754396746e-05  1.8660187601854584e-05  1.5358490371988344e-05  1.2288798172366551e-05  9.5008547669396733e-06  7.0631152319983715e-06  5.0337370369961733e-06  3.4343936349073299e-06  2.2435419363928775e-06  1.4075359731892619e-06  8.6529951953003854e-07  5.9737248341617007e-07  5.3631921527592785e-07  3.6121592638206495e-07  2.1121485202223384e-07  1.1474730069391232e-07  5.9401134876694142e-08  2.9627560285997536e-08  1.4318680282725104e-08  6.7278312368377415e-09  3.0804433858177076e-09  1.3768595000653896e-09  6.0165803518941020e-10  2.5737112178201260e-10  1.0790224028864120e-10  4.4384226922116037e-11  1.7930060585933664e-11  7.1190630971607001e-12  2.7728622214664808e-12  1.0085048611896599e-12  0.0000000000000000e+00  6.0000000000000002e-05  5.6844813168086448e-05  5.4745519756480421e-05  5.2661810025419518e-05  5.0115077181005392e-05  4.7081912485403845e-05  4.3757616576197808e-05  4.0423598867552081e-05  3.7348528967487876e-05  3.4722986621941532e-05  3.2634438339438660e-05  3.1077221977868908e-05  2.9982252859248875e-05  2.9249881664131907e-05  2.8774393769368860e-05  2.8455202825858300e-05  2.8194208758671731e-05  2.7874896938819334e-05  2.7243366987006623e-05  2.5535386907211722e-05  2.2528325156970375e-05  1.9144599789554721e-05  1.5835474441817244e-05  1.2719244897470675e-05  9.8660278087887411e-06  7.3564537248755145e-06  5.2573679737156374e-06  3.5964056055170881e-06  2.3552135530704950e-06  1.4807967817632520e-06  9.1072951507873176e-07  6.2266971661314061e-07  5.4851528870112358e-07  3.6646747609596500e-07  2.1354825976696008e-07  1.1585237860227030e-07  5.9940461477313916e-08  2.9891217842280589e-08  1.4445851214907235e-08  6.7879475505946419e-09  3.1082285550771863e-09  1.3894104948449201e-09  6.0720175951145298e-10  2.5976751280580067e-10  1.0891703212439078e-10  4.4805631609959549e-11  1.8101833311771862e-11  7.1878595657192510e-12  2.7999636096163682e-12  1.0188488913725983e-12  0.0000000000000000e+00  6.0000000000000002e-05  5.7049500470274539e-05  5.5001137573422087e-05  5.2928217282696337e-05  5.0377530241529601e-05  4.7333190781239557e-05  4.3993633165771316e-05  4.0642428392539285e-05  3.7550142646119795e-05  3.4908892303420387e-05  3.2807128802009808e-05  3.1239573456988970e-05  3.0137030975854432e-05  2.9399435359591040e-05  2.8920534459699585e-05  2.8599222603910059e-05  2.8337060300633766e-05  2.8018296400948549e-05  2.7399695508992016e-05  2.5795451813639903e-05  2.2925608121343123e-05  1.9616069647816800e-05  1.6307703904298061e-05  1.3150691359280134e-05  1.0235405045922668e-05  7.6552992863431944e-06  5.4865461643173223e-06  3.7632808917341110e-06  2.4707553602090337e-06  1.5569072797892222e-06  9.5813492596041650e-07  6.4939441020009092e-07  5.6147046797032204e-07  3.7193720003835645e-07  2.1594477383840517e-07  1.1697759338318186e-07  6.0487082209319997e-08  3.0157840850600306e-08  1.4574321929507286e-08  6.8486532721995839e-09  3.1362826561746484e-09  1.4020831097697412e-09  6.1279961265935880e-10  2.6218754498101240e-10  1.0994194862734548e-10  4.5231288754666951e-11  1.8275358729243200e-11  7.2573653524684697e-12  2.8273454731483193e-12  1.0292806724870037e-12  0.0000000000000000e+00  6.0000000000000002e-05  5.7249930467503407e-05  5.5256336686867907e-05  5.3195448737843557e-05  5.0641178693806305e-05  4.7585744267425155e-05  4.4230898561297663e-05  4.0862437294747372e-05  3.7752849762197356e-05  3.5095803898696717e-05  3.2980745601432740e-05  3.1402784997972009e-05  3.0292617954833694e-05  2.9549760935997133e-05  2.9067421995933421e-05  2.8743974069280610e-05  2.8480642307696019e-05  2.8162496300306423e-05  2.7557589717473724e-05  2.6049682925962374e-05  2.3307523734443698e-05  2.0075604389411287e-05  1.6775519064891100e-05  1.3583365032474796e-05  1.0609240345811165e-05  7.9599349045798044e-06  5.7215543469749127e-06  3.9352742842085485e-06  2.5903775684754228e-06  1.6360271001748608e-06  1.0076226573198433e-06  6.7758139744531449e-07  5.7517668533849283e-07  3.7761906946865107e-07  2.1840256696263589e-07  1.1812248495838190e-07  6.1040886796817493e-08  3.0427403426104978e-08  1.4704086313148372e-08  6.9099468569679105e-09  3.1646052252965993e-09  1.4148771676619492e-09  6.1845151353539969e-10  2.6463117848233754e-10  1.1097697020932566e-10  4.5661188961491423e-11  1.8450632475232724e-11  7.3275784992171302e-12  2.8550070483863595e-12  1.0398015609681885e-12  0.0000000000000000e+00  6.0000000000000002e-05  5.7446474127592783e-05  5.5511215925865246e-05  5.3463540587191459e-05  5.0906039137540963e-05  4.7839583171757128e-05  4.4469420640072779e-05  4.1083632285387411e-05  3.7956656216466325e-05  3.5283726650935266e-05  3.3155293447765968e-05  3.1566860903285918e-05  3.0449017808282382e-05  2.970086221149543