<?xml version="1.0"?>
<VTKFile type="UnstructuredGrid"  version="0.1"  >
<UnstructuredGrid>
<Piece  NumberOfPoints="2601" NumberOfCells="5000">
<Points>
<DataArray  type="Float64"  NumberOfComponents="3"  format="ascii">-1 0 0  -0.96 0 0  -0.92 0 0  -0.88 0 0  -0.84 0 0  -0.8 0 0  -0.76 0 0  -0.72 0 0  -0.6799999999999999 0 0  -0.64 0 0  -0.6 0 0  -0.5600000000000001 0 0  -0.52 0 0  -0.48 0 0  -0.4399999999999999 0 0  -0.4 0 0  -0.36 0 0  -0.32 0 0  -0.28 0 0  -0.24 0 0  -0.2 0 0  -0.16 0 0  -0.12 0 0  -0.07999999999999996 0 0  -0.04000000000000004 0 0  0 0 0  0.04000000000000004 0 0  0.08000000000000007 0 0  0.1200000000000001 0 0  0.1599999999999999 0 0  0.2 0 0  0.24 0 0  0.28 0 0  0.3200000000000001 0 0  0.3600000000000001 0 0  0.3999999999999999 0 0  0.4399999999999999 0 0  0.48 0 0  0.52 0 0  0.5600000000000001 0 0  0.6000000000000001 0 0  0.6399999999999999 0 0  0.6799999999999999 0 0  0.72 0 0  0.76 0 0  0.8 0 0  0.8400000000000001 0 0  0.8799999999999999 0 0  0.9199999999999999 0 0  0.96 0 0  1 0 0  -1 0.016 0  -0.96 0.016 0  -0.92 0.016 0  -0.88 0.016 0  -0.84 0.016 0  -0.8 0.016 0  -0.76 0.016 0  -0.72 0.016 0  -0.6799999999999999 0.016 0  -0.64 0.016 0  -0.6 0.016 0  -0.5600000000000001 0.016 0  -0.52 0.016 0  -0.48 0.016 0  -0.4399999999999999 0.016 0  -0.4 0.016 0  -0.36 0.016 0  -0.32 0.016 0  -0.28 0.016 0  -0.24 0.016 0  -0.2 0.016 0  -0.16 0.016 0  -0.12 0.016 0  -0.07999999999999996 0.016 0  -0.04000000000000004 0.016 0  0 0.016 0  0.04000000000000004 0.016 0  0.08000000000000007 0.016 0  0.1200000000000001 0.016 0  0.1599999999999999 0.016 0  0.2 0.016 0  0.24 0.016 0  0.28 0.016 0  0.3200000000000001 0.016 0  0.3600000000000001 0.016 0  0.3999999999999999 0.016 0  0.4399999999999999 0.016 0  0.48 0.016 0  0.52 0.016 0  0.5600000000000001 0.016 0  0.6000000000000001 0.016 0  0.6399999999999999 0.016 0  0.6799999999999999 0.016 0  0.72 0.016 0  0.76 0.016 0  0.8 0.016 0  0.8400000000000001 0.016 0  0.8799999999999999 0.016 0  0.9199999999999999 0.016 0  0.96 0.016 0  1 0.016 0  -1 0.032 0  -0.96 0.032 0  -0.92 0.032 0  -0.88 0.032 0  -0.84 0.032 0  -0.8 0.032 0  -0.76 0.032 0  -0.72 0.032 0  -0.6799999999999999 0.032 0  -0.64 0.032 0  -0.6 0.032 0  -0.5600000000000001 0.032 0  -0.52 0.032 0  -0.48 0.032 0  -0.4399999999999999 0.032 0  -0.4 0.032 0  -0.36 0.032 0  -0.32 0.032 0  -0.28 0.032 0  -0.24 0.032 0  -0.2 0.032 0  -0.16 0.032 0  -0.12 0.032 0  -0.07999999999999996 0.032 0  -0.04000000000000004 0.032 0  0 0.032 0  0.04000000000000004 0.032 0  0.08000000000000007 0.032 0  0.1200000000000001 0.032 0  0.1599999999999999 0.032 0  0.2 0.032 0  0.24 0.032 0  0.28 0.032 0  0.3200000000000001 0.032 0  0.3600000000000001 0.032 0  0.3999999999999999 0.032 0  0.4399999999999999 0.032 0  0.48 0.032 0  0.52 0.032 0  0.5600000000000001 0.032 0  0.6000000000000001 0.032 0  0.6399999999999999 0.032 0  0.6799999999999999 0.032 0  0.72 0.032 0  0.76 0.032 0  0.8 0.032 0  0.8400000000000001 0.032 0  0.8799999999999999 0.032 0  0.9199999999999999 0.032 0  0.96 0.032 0  1 0.032 0  -1 0.04800000000000001 0  -0.96 0.04800000000000001 0  -0.92 0.04800000000000001 0  -0.88 0.04800000000000001 0  -0.84 0.04800000000000001 0  -0.8 0.04800000000000001 0  -0.76 0.04800000000000001 0  -0.72 0.04800000000000001 0  -0.6799999999999999 0.04800000000000001 0  -0.64 0.04800000000000001 0  -0.6 0.04800000000000001 0  -0.5600000000000001 0.04800000000000001 0  -0.52 0.04800000000000001 0  -0.48 0.04800000000000001 0  -0.4399999999999999 0.04800000000000001 0  -0.4 0.04800000000000001 0  -0.36 0.04800000000000001 0  -0.32 0.04800000000000001 0  -0.28 0.04800000000000001 0  -0.24 0.04800000000000001 0  -0.2 0.04800000000000001 0  -0.16 0.04800000000000001 0  -0.12 0.04800000000000001 0  -0.07999999999999996 0.04800000000000001 0  -0.04000000000000004 0.04800000000000001 0  0 0.04800000000000001 0  0.04000000000000004 0.04800000000000001 0  0.08000000000000007 0.04800000000000001 0  0.1200000000000001 0.04800000000000001 0  0.1599999999999999 0.04800000000000001 0  0.2 0.04800000000000001 0  0.24 0.04800000000000001 0  0.28 0.04800000000000001 0  0.3200000000000001 0.04800000000000001 0  0.3600000000000001 0.04800000000000001 0  0.3999999999999999 0.04800000000000001 0  0.4399999999999999 0.04800000000000001 0  0.48 0.04800000000000001 0  0.52 0.04800000000000001 0  0.5600000000000001 0.04800000000000001 0  0.6000000000000001 0.04800000000000001 0  0.6399999999999999 0.04800000000000001 0  0.6799999999999999 0.04800000000000001 0  0.72 0.04800000000000001 0  0.76 0.04800000000000001 0  0.8 0.04800000000000001 0  0.8400000000000001 0.04800000000000001 0  0.8799999999999999 0.04800000000000001 0  0.9199999999999999 0.04800000000000001 0  0.96 0.04800000000000001 0  1 0.04800000000000001 0  -1 0.064 0  -0.96 0.064 0  -0.92 0.064 0  -0.88 0.064 0  -0.84 0.064 0  -0.8 0.064 0  -0.76 0.064 0  -0.72 0.064 0  -0.6799999999999999 0.064 0  -0.64 0.064 0  -0.6 0.064 0  -0.5600000000000001 0.064 0  -0.52 0.064 0  -0.48 0.064 0  -0.4399999999999999 0.064 0  -0.4 0.064 0  -0.36 0.064 0  -0.32 0.064 0  -0.28 0.064 0  -0.24 0.064 0  -0.2 0.064 0  -0.16 0.064 0  -0.12 0.064 0  -0.07999999999999996 0.064 0  -0.04000000000000004 0.064 0  0 0.064 0  0.04000000000000004 0.064 0  0.08000000000000007 0.064 0  0.1200000000000001 0.064 0  0.1599999999999999 0.064 0  0.2 0.064 0  0.24 0.064 0  0.28 0.064 0  0.3200000000000001 0.064 0  0.3600000000000001 0.064 0  0.3999999999999999 0.064 0  0.4399999999999999 0.064 0  0.48 0.064 0  0.52 0.064 0  0.5600000000000001 0.064 0  0.6000000000000001 0.064 0  0.6399999999999999 0.064 0  0.6799999999999999 0.064 0  0.72 0.064 0  0.76 0.064 0  0.8 0.064 0  0.8400000000000001 0.064 0  0.8799999999999999 0.064 0  0.9199999999999999 0.064 0  0.96 0.064 0  1 0.064 0  -1 0.08 0  -0.96 0.08 0  -0.92 0.08 0  -0.88 0.08 0  -0.84 0.08 0  -0.8 0.08 0  -0.76 0.08 0  -0.72 0.08 0  -0.6799999999999999 0.08 0  -0.64 0.08 0  -0.6 0.08 0  -0.5600000000000001 0.08 0  -0.52 0.08 0  -0.48 0.08 0  -0.4399999999999999 0.08 0  -0.4 0.08 0  -0.36 0.08 0  -0.32 0.08 0  -0.28 0.08 0  -0.24 0.08 0  -0.2 0.08 0  -0.16 0.08 0  -0.12 0.08 0  -0.07999999999999996 0.08 0  -0.04000000000000004 0.08 0  0 0.08 0  0.04000000000000004 0.08 0  0.08000000000000007 0.08 0  0.1200000000000001 0.08 0  0.1599999999999999 0.08 0  0.2 0.08 0  0.24 0.08 0  0.28 0.08 0  0.3200000000000001 0.08 0  0.3600000000000001 0.08 0  0.3999999999999999 0.08 0  0.4399999999999999 0.08 0  0.48 0.08 0  0.52 0.08 0  0.5600000000000001 0.08 0  0.6000000000000001 0.08 0  0.6399999999999999 0.08 0  0.6799999999999999 0.08 0  0.72 0.08 0  0.76 0.08 0  0.8 0.08 0  0.8400000000000001 0.08 0  0.8799999999999999 0.08 0  0.9199999999999999 0.08 0  0.96 0.08 0  1 0.08 0  -1 0.09600000000000002 0  -0.96 0.09600000000000002 0  -0.92 0.09600000000000002 0  -0.88 0.09600000000000002 0  -0.84 0.09600000000000002 0  -0.8 0.09600000000000002 0  -0.76 0.09600000000000002 0  -0.72 0.09600000000000002 0  -0.6799999999999999 0.09600000000000002 0  -0.64 0.09600000000000002 0  -0.6 0.09600000000000002 0  -0.5600000000000001 0.09600000000000002 0  -0.52 0.09600000000000002 0  -0.48 0.09600000000000002 0  -0.4399999999999999 0.09600000000000002 0  -0.4 0.09600000000000002 0  -0.36 0.09600000000000002 0  -0.32 0.09600000000000002 0  -0.28 0.09600000000000002 0  -0.24 0.09600000000000002 0  -0.2 0.09600000000000002 0  -0.16 0.09600000000000002 0  -0.12 0.09600000000000002 0  -0.07999999999999996 0.09600000000000002 0  -0.04000000000000004 0.09600000000000002 0  0 0.09600000000000002 0  0.04000000000000004 0.09600000000000002 0  0.08000000000000007 0.09600000000000002 0  0.1200000000000001 0.09600000000000002 0  0.1599999999999999 0.09600000000000002 0  0.2 0.09600000000000002 0  0.24 0.09600000000000002 0  0.28 0.09600000000000002 0  0.3200000000000001 0.09600000000000002 0  0.3600000000000001 0.09600000000000002 0  0.3999999999999999 0.09600000000000002 0  0.4399999999999999 0.09600000000000002 0  0.48 0.09600000000000002 0  0.52 0.09600000000000002 0  0.5600000000000001 0.09600000000000002 0  0.6000000000000001 0.09600000000000002 0  0.6399999999999999 0.09600000000000002 0  0.6799999999999999 0.09600000000000002 0  0.72 0.09600000000000002 0  0.76 0.09600000000000002 0  0.8 0.09600000000000002 0  0.8400000000000001 0.09600000000000002 0  0.8799999999999999 0.09600000000000002 0  0.9199999999999999 0.09600000000000002 0  0.96 0.09600000000000002 0  1 0.09600000000000002 0  -1 0.112 0  -0.96 0.112 0  -0.92 0.112 0  -0.88 0.112 0  -0.84 0.112 0  -0.8 0.112 0  -0.76 0.112 0  -0.72 0.112 0  -0.6799999999999999 0.112 0  -0.64 0.112 0  -0.6 0.112 0  -0.5600000000000001 0.112 0  -0.52 0.112 0  -0.48 0.112 0  -0.4399999999999999 0.112 0  -0.4 0.112 0  -0.36 0.112 0  -0.32 0.112 0  -0.28 0.112 0  -0.24 0.112 0  -0.2 0.112 0  -0.16 0.112 0  -0.12 0.112 0  -0.07999999999999996 0.112 0  -0.04000000000000004 0.112 0  0 0.112 0  0.04000000000000004 0.112 0  0.08000000000000007 0.112 0  0.1200000000000001 0.112 0  0.1599999999999999 0.112 0  0.2 0.112 0  0.24 0.112 0  0.28 0.112 0  0.3200000000000001 0.112 0  0.3600000000000001 0.112 0  0.3999999999999999 0.112 0  0.4399999999999999 0.112 0  0.48 0.112 0  0.52 0.112 0  0.5600000000000001 0.112 0  0.6000000000000001 0.112 0  0.6399999999999999 0.112 0  0.6799999999999999 0.112 0  0.72 0.112 0  0.76 0.112 0  0.8 0.112 0  0.8400000000000001 0.112 0  0.8799999999999999 0.112 0  0.9199999999999999 0.112 0  0.96 0.112 0  1 0.112 0  -1 0.128 0  -0.96 0.128 0  -0.92 0.128 0  -0.88 0.128 0  -0.84 0.128 0  -0.8 0.128 0  -0.76 0.128 0  -0.72 0.128 0  -0.6799999999999999 0.128 0  -0.64 0.128 0  -0.6 0.128 0  -0.5600000000000001 0.128 0  -0.52 0.128 0  -0.48 0.128 0  -0.4399999999999999 0.128 0  -0.4 0.128 0  -0.36 0.128 0  -0.32 0.128 0  -0.28 0.128 0  -0.24 0.128 0  -0.2 0.128 0  -0.16 0.128 0  -0.12 0.128 0  -0.07999999999999996 0.128 0  -0.04000000000000004 0.128 0  0 0.128 0  0.04000000000000004 0.128 0  0.08000000000000007 0.128 0  0.1200000000000001 0.128 0  0.1599
[...]
<PointData  Scalars="f_100"> 
<DataArray  type="Float64"  Name="f_100"  format="ascii">6.0000000000000002e-05  5.4288206835421714e-05  5.3036278220703561e-05  5.2640449828358912e-05  5.2506213307708006e-05  5.2448074404403371e-05  5.2404327943741704e-05  5.2351090895116575e-05  5.2275152954018486e-05  5.2165324707705649e-05  5.2009743210854204e-05  5.1795216511576389e-05  5.1507393676899524e-05  5.1131376987595535e-05  5.0652591877805599e-05  5.0057452800634124e-05  4.9330599523347047e-05  4.8421537769480222e-05  4.7038414923129044e-05  3.8573923765878093e-05  2.8353069231285362e-05  2.3630325890006068e-05  2.0372597596571268e-05  1.7924609227840674e-05  1.6011286535685647e-05  1.4479980581485991e-05  1.3237501916732435e-05  1.2234769349799358e-05  1.1487466550955571e-05  1.1175899815484039e-05  1.1993410027622627e-05  1.6785118920250593e-05  2.3664869700650173e-05  2.5144359763069086e-05  2.4731620762924992e-05  2.3658796261723975e-05  2.2350283528661488e-05  2.0938306652585183e-05  1.9465536183449115e-05  1.7950740742008062e-05  1.6409041912414821e-05  1.4857487387283429e-05  1.3315735489892861e-05  1.1804975122305755e-05  1.0345966493984491e-05  8.9558350961838376e-06  7.6410078609212698e-06  6.3770069692680667e-06  5.0457219136988522e-06  3.2500188367189835e-06  0.0000000000000000e+00  6.0000000000000002e-05  5.4562289351768745e-05  5.3303651444859693e-05  5.2904825403834278e-05  5.2769616108638014e-05  5.2711130643777044e-05  5.2667206583480901e-05  5.2613800363034643e-05  5.2537629285256162e-05  5.2427452751598668e-05  5.2271356166969217e-05  5.2056088726820553e-05  5.1767232255848784e-05  5.1389814977537237e-05  5.0909185161580889e-05  5.0311684355525699e-05  4.9581909990386984e-05  4.8669654879926157e-05  4.7260304475748276e-05  3.9574770905010181e-05  2.9760818934476598e-05  2.4807249317855791e-05  2.1374354200760328e-05  1.8796729379052724e-05  1.6783434911771664e-05  1.5172853374465507e-05  1.3866161617363222e-05  1.2810323422154629e-05  1.2017752326020385e-05  1.1664969654887782e-05  1.2438786438555625e-05  1.6960368178489327e-05  2.3770514217639692e-05  2.5273179918668780e-05  2.4861201366876300e-05  2.3783966018095241e-05  2.2469341640323603e-05  2.1050577926643201e-05  1.9570649217298875e-05  1.8048425607708508e-05  1.6499089244554196e-05  1.4939755693395095e-05  1.3390169489664862e-05  1.1871622184337986e-05  1.0404986698627653e-05  9.0075045079363383e-06  7.6857186544854440e-06  6.4152754953670388e-06  5.0782253730521624e-06  3.2777434808895889e-06  0.0000000000000000e+00  6.0000000000000002e-05  5.4832326605469449e-05  5.3570204062261355e-05  5.3169844484640906e-05  5.3034123755705805e-05  5.2975437321459035e-05  5.2931381424236690e-05  5.2877820055469130e-05  5.2801419563664957e-05  5.2690894830551412e-05  5.2534281575826283e-05  5.2318270588994959e-05  5.2028376393106242e-05  5.1649552942168364e-05  5.1167071335705673e-05  5.0567202584032278e-05  4.9834524635924680e-05  4.8919314379478556e-05  4.7490057567530957e-05  4.0490520494270629e-05  3.1156773440715036e-05  2.5981382361195431e-05  2.2384411664396566e-05  1.9682575242338225e-05  1.7572146456693741e-05  1.5883785550352032e-05  1.4513569737736399e-05  1.3404729875629247e-05  1.2566372761905076e-05  1.2170664988846576e-05  1.2893697212160000e-05  1.7173659875771090e-05  2.3891833617946660e-05  2.5407726413039640e-05  2.4993069508607697e-05  2.3910298930565800e-05  2.2589186537059589e-05  2.1163494581576205e-05  1.9676339036906483e-05  1.8146640707356407e-05  1.6589626489319586e-05  1.5022475015623349e-05  1.3465015754356460e-05  1.1938642807527239e-05  1.0464342154492071e-05  9.0594718309534964e-06  7.7306917087522918e-06  6.4537719658779571e-06  5.1109075724010875e-06  3.3054006354610460e-06  0.0000000000000000e+00  6.0000000000000002e-05  5.5097522742296746e-05  5.3835895388287903e-05  5.3435500223871215e-05  5.3299738634412659e-05  5.3240999738703022e-05  5.3196858707403202e-05  5.3143156537467012e-05  5.3066530491843463e-05  5.2955657735440843e-05  5.2798526310434848e-05  5.2581769059304958e-05  5.2290833144882446e-05  5.1910598033989154e-05  5.1426257633267664e-05  5.0824014695063525e-05  5.0088449910656289e-05  4.9170505038822671e-05  4.7727180653127595e-05  4.1332702582909714e-05  3.2506008633382044e-05  2.7146448782455294e-05  2.3400040843040419e-05  2.0580740497871838e-05  1.8376758876464179e-05  1.6612584628227417e-05  1.5179847750965898e-05  1.4018331531575109e-05  1.3133850937460036e-05  1.2693744164932713e-05  1.3360320205842875e-05  1.7420290541403876e-05  2.4029077283231623e-05  2.5548084842448832e-05  2.5127260658220243e-05  2.4037808779055278e-05  2.2709825006806309e-05  2.1277061134758307e-05  1.9782609337564843e-05  1.8245389329680940e-05  1.6680656622752142e-05  1.5105648015569136e-05  1.3540276606900505e-05  1.2006038952824510e-05  1.0524034441314072e-05  9.1117382329925042e-06  7.7759276818823732e-06  6.4924962275492823e-06  5.1437670386336584e-06  3.3329825857514122e-06  0.0000000000000000e+00  6.0000000000000002e-05  5.5357319607051096e-05  5.4100700963888930e-05  5.3701789907538311e-05  5.3566464447695867e-05  5.3507823630440557e-05  5.3463644825664984e-05  5.3409816431342199e-05  5.3332968793517567e-05  5.3221748258570729e-05  5.3064097228789682e-05  5.2846591066706974e-05  5.2554609516191925e-05  5.2172957334012066e-05  5.1686751195515927e-05  5.1082127789199913e-05  5.0343692156925852e-05  4.9423220195767569e-05  4.7971175593514269e-05  4.2111569272449279e-05  3.3791688033936874e-05  2.8297937419008263e-05  2.4418898559152641e-05  2.1490009431117273e-05  1.9196735604752055e-05  1.7359153637897581e-05  1.5865194659934186e-05  1.4651533396632492e-05  1.3720749241602143e-05  1.3234951870281979e-05  1.3840491646635268e-05  1.7696908566422965e-05  2.4182427513123972e-05  2.5694318829362940e-05  2.5263800961359282e-05  2.4166506307629735e-05  2.2831262855931620e-05  2.1391281761407834e-05  1.9889463670466150e-05  1.8344674685129850e-05  1.6772182572687178e-05  1.5189277330297808e-05  1.3615954370974646e-05  1.2073812610175209e-05  1.0584065199151717e-05  9.1643049793853069e-06  7.8214273865236868e-06  6.5314484055038906e-06  5.1768028899215252e-06  3.3604863056298965e-06  0.0000000000000000e+00  6.0000000000000002e-05  5.5611353447464947e-05  5.4364610441849979e-05  5.3968714726730012e-05  5.3834306147442168e-05  5.3775915144703045e-05  5.3731746318091668e-05  5.3677806417557318e-05  5.3600741217379373e-05  5.3489173199902075e-05  5.3331001182656994e-05  5.3112743519625021e-05  5.2819712475875407e-05  5.2436637870325635e-05  5.1948559093744173e-05  5.1341548881154051e-05  5.0600257606888847e-05  4.9677456374248470e-05  4.8221552987893735e-05  4.2836103303070946e-05  3.5007488246928217e-05  2.9432238275116210e-05  2.5438910182801587e-05  2.2409304051649758e-05  2.0031632359489576e-05  1.8123468344230604e-05  1.6569871527273394e-05  1.5304793852141830e-05  1.4327670427953638e-05  1.3795042665462147e-05  1.4335797042444133e-05  1.8001142372309752e-05  2.4352001172336957e-05  2.5846470368961621e-05  2.5402707705828556e-05  2.4296399395283318e-05  2.2953504970509603e-05  2.1506160322084757e-05  1.9996905459860643e-05  1.8444499919024720e-05  1.6864207228898263e-05  1.5273365578927818e-05  1.3692051373208737e-05  1.2141965795631813e-05  1.0644436119779892e-05  9.2171734176340483e-06  7.8671917642520533e-06  6.5706288573384297e-06  5.2100147491795288e-06  3.3879125521231662e-06  0.0000000000000000e+00  6.0000000000000002e-05  5.5859418985263769e-05  5.4627626098734419e-05  5.4236279592596451e-05  5.4103269877808591e-05  5.4045280825606078e-05  5.4001169866098780e-05  5.3947133235473039e-05  5.3869854540279577e-05  5.3757939372218155e-05  5.3599245024845418e-05  5.3380233315635401e-05  5.3086148969006848e-05  5.2701646633417855e-05  5.2211688347358671e-05  5.1602284918424315e-05  5.0858152384145104e-05  4.9933212181653010e-05  4.8477841530367360e-05  4.3514102801347916e-05  3.6153062450971441e-05  3.0546392702456913e-05  2.6458236806969677e-05  2.3337665730526123e-05  2.0881085068285748e-05  1.8905569073261963e-05  1.7294196234601120e-05  1.5978622443223518e-05  1.4955260494734566e-05  1.4374795333631409e-05  1.4847639641528309e-05  1.8331334226242996e-05  2.4537853263494548e-05  2.6004560084837264e-05  2.5543989712359043e-05  2.4427493197242068e-05  2.3076555366982011e-05  2.1621700385410413e-05  2.0104938017215503e-05  1.8544868122400247e-05  1.6956733451442818e-05  1.5357915368039094e-05  1.3768569944979932e-05  1.2210500548952415e-05  1.0705148939584178e-05  9.2703449647152923e-06  7.9132218645265898e-06  6.6100381352797379e-06  5.2434026733507787e-06  3.4152651201991216e-06  0.0000000000000000e+00  6.0000000000000002e-05  5.6101439650654252e-05  5.4889761789496958e-05  5.4504492981766451e-05  5.4373362927304450e-05  5.4315927598966982e-05  5.4271922290026464e-05  5.4217803683957708e-05  5.4140315569877379e-05  5.4028053605408427e-05  5.3868835615227959e-05  5.3649067349477673e-05  5.3353925927146170e-05  5.2967990588831139e-05  5.2476145938804339e-05  5.1864342796810526e-05  5.1117382507598822e-05  5.0190487440413200e-05  4.8739594246016126e-05  4.4152300103521589e-05  3.7231336327309864e-05  3.1638063133922167e-05  2.7475274946733553e-05  2.4274254325232303e-05  2.1744809251935192e-05  1.9705560517692748e-05  1.8038543881790729e-05  1.6673581311827607e-05  1.5604212521867067e-05  1.4975022236179139e-05  1.5377292715916198e-05  1.8686349475926300e-05  2.4739981362511746e-05  2.6168587421141329e-05  2.5687647667686212e-05  2.4559790264121618e-05  2.3200417234775180e-05  2.1737905247071187e-05  2.0213564552972717e-05  1.8645782340960439e-05  1.7049764077537707e-05  1.5442929296117196e-05  1.3845512423875230e-05  1.2279418931605722e-05  1.0766205433694172e-05  9.3238210966177783e-06  7.9595188273615454e-06  6.6496769549662241e-06  5.2769670953059892e-06  3.4425502311180788e-06  0.0000000000000000e+00  6.0000000000000002e-05  5.6337442971541975e-05  5.5151042207218861e-05  5.4773366802861650e-05  5.4644593687196498e-05  5.4587862759810613e-05  5.4544010546138681e-05  5.4489824621854077e-05  5.4412131146834718e-05  5.4299522750023969e-05  5.4139779825733825e-05  5.3919252519686310e-05  5.3623050276817674e-05  5.3235676687619765e-05  5.2741938825904166e-05  5.2127729373346067e-05  5.1377953896679405e-05  5.0449282515142781e-05  4.9006392314523117e-05  4.4756490712338680e-05  3.8246908725312087e-05  3.2705552628548167e-05  2.8488668030771351e-05  2.5218356121863798e-05  2.2622605571788899e-05  2.0523615958622564e-05  1.8803350355462906e-05  1.7390288696401140e-05  1.6275271061771620e-05  1.5596576092527917e-05  1.5925940038781792e-05  1.9065439700376384e-05  2.4958330234047285e-05  2.6338530795730697e-05  2.5833674414869753e-05  2.4693290644853903e-05  2.3325092972941538e-05  2.1854777945965752e-05  2.0322788186394413e-05  1.8747245582506383e-05  1.7143301927234247e-05  1.5528409957210080e-05  1.3922881154885909e-05  1.2348723025116055e-05  1.0827607411141797e-05  9.3776033397217823e-06  8.0060838690568301e-06  6.6895461696754886e-06  5.3107087757971588e-06  3.4697760321073018e-06  0.0000000000000000e+00  6.0000000000000002e-05  5.6567540272318544e-05  5.5411502345698901e-05  5.5042916277069883e-05  5.4916971614288246e-05  5.4861093961167760e-05  5.4817441723885633e-05  5.4763202968301797e-05  5.4685308146626606e-05  5.4572353680229897e-05  5.4412084544490996e-05  5.4190795734086229e-05  5.3893528946527299e-05  5.3504711874997936e-05  5.3009073952069315e-05  5.2392451477105439e-05  5.1639872377338138e-05  5.0709597801615513e-05  4.9277847057352689e-05  4.5331659361177776e-05  3.9205117608420542e-05  3.3747811593629169e-05  2.9497321195530143e-05  2.6169396011699625e-05  2.3514368684455760e-05  2.1359983976688581e-05  1.9589117732550253e-05  1.8129423655628786e-05  1.6969236903705088e-05  1.6240355553416001e-05  1.6494707666259361e-05  1.9468144463807491e-05  2.5192796203140703e-05  2.6514347735466060e-05  2.5982055213132741e-05  2.4827991978145159e-05  2.3450584222489204e-05  2.1972321278190733e-05  2.0432611953893653e-05  1.8849260823126079e-05  1.7237349808113534e-05  1.5614359943942233e-05  1.4000678491386048e-05  1.2418414929692620e-05  1.0889356710867037e-05  9.4316932636967512e-06  8.0529182704455326e-06  6.7296467490278716e-06  5.3446287634268706e-06  3.4969521887672733e-06  0.0000000000000000e+00  6.0000000000000002e-05  5.6791909974186096e-05  5.5671187089862228e-05  5.5313159827451611e-05  5.5190507196518669e-05  5.5135629203690499e-05  5.5092223043304814e-05  5.5037945702916471e-05  5.4959853481027463e-05  5.4846553296258775e-05  5.4685756679268501e-05  5.4463703914352334e-05  5.4165368872576439e-05  5.3775103097498332e-05  5.3277558254756799e-05  5.2658515918266756e-05  5.1903143688442811e-05  5.0971433348515428e-05  4.9553600550028636e-05  4.5882096643873973e-05  4.0111505805540636e-05  3.4764416687862662e-05  3.0500415586057513e-05  2.7126951409140650e-05  2.4420097844186881e-05  2.2214996602314818e-05  2.0396420794791602e-05  1.8891731565017883e-05  1.7686972135812641e-05  1.6907310325273409e-05  1.7084689278563403e-05  1.9894220755973705e-05  2.5443231032871996e-05  2.6695975011351259e-05  2.6132767977303587e-05  2.4963889576288308e-05  2.3576891895733832e-05  2.2090537809425978e-05  2.0543038816174985e-05  1.8951831012384139e-05  1.7331910519183153e-05  1.5700781850004571e-05  1.4078906795937367e-05  1.2488496763096439e-05  1.0951455198424346e-05  9.4860924756505150e-06  8.1000233672123555e-06  6.7699797613670949e-06  5.3787283610106012e-06  3.5240895546730607e-06  0.0000000000000000e+00  6.0000000000000002e-05  5.7010783903962790e-05  5.5930150879816902e-05  5.5584118972938233e-05  5.5465211920145113e-05  5.5411476825707494e-05  5.5368361852462445e-05  5.5314059865827315e-05  5.5235774099323381e-05  5.5122128526450562e-05  5.4960803160341283e-05  5.4737983999798263e-05  5.4438577003885199e-05  5.4046857308904501e-05  5.3547398672485433e-05  5.2925929495742553e-05  5.2167773488342228e-05  5.1234788587111678e-05  4.9833325224487534e-05  4.6411503447369114e-05  4.0971526184302237e-05  3.5755525596490964e-05  3.1497420285826588e-05  2.8090766534061885e-05  2.5339908388186739e-05  2.3089078325224384e-05  2.1225914257463367e-05  1.9678030143198163e-05  1.8429405475657373e-05  1.7598446252016412e-05  1.7696966739537802e-05  2.0343592326992794e-05  2.5709445172879965e-05  2.6883328788029138e-05  2.6285783505128276e-05  2.5100976504386805e-05  2.3704016203739019e-05  2.2209429886171145e-05  2.0654071664448483e-05  1.9054959077706055e-05  1.7426986854123737e-05  1.5787678272217142e-05  1.4157568440954450e-05  1.2558970659705888e-05  1.1013904763268186e-05  9.5408026153100073e-06  8.1474005419155175e-06  6.8105463591601921e-06  5.4130090970412352e-06  3.5511999051884394e-06  0.0000000000000000e+00  6.0000000000000002e-05  5.7224436114705133e-05  5.6188457410252712e-05  5.5855818223949661e-05  5.5741098237533851e-05  5.5688645493421287e-05  5.5645865624858888e-05  5.5591552557576344e-05  5.5513076989291646e-05  5.5399086328950318e-05  5.5237230942879119e-05  5.5013642950530419e-05  5.4713160306000214e-05  5.4319981475174543e-05  5.3818602150666018e-05  5.3194699003637794e-05  5.2433767361477072e-05  5.1499662147807168e-05  5.0116722746576135e-05  4.6923082560605784e-05  4.1790389387415755e-05  3.6721816745624911e-05  3.2488100961792046e-05  2.9060766301455511e-05  2.6274043616105854e-05  2.3982755636743893e-05  2.2078340491541396e-05  2.0489215875268304e-05  1.9197537859280324e-05  1.8314830562959654e-05  1.8332627110324556e-05  2.0816313348008706e-05  2.5991210318171691e-05  2.7076304799433885e-05  2.6441065699213281e-05  2.5239243657421605e-05  2.3831956682693700e-05  2.2328999646196478e-05  2.0765713325931606e-05  1.9158647928116343e-05  1.7522581604007145e-05  1.5875051812243880e-05  1.4236665809258008e-05  1.2629838769748173e-05  1.1076707316517123e-05  9.5958253510519077e-06  8.1950512174094050e-06  6.8513477668749611e-06  5.4474727012288030e-06  3.5782957246452344e-06  0.0000000000000000e+00  6.0000000000000002e-05  5.7433173802282561e-05  5.6446179338823951e-05  5.6128284977296801e-05  5.6018179534793280e-05  5.5967144191014680e-05  5.5924741956738509e-05  5.5870430938883135e-05  5.5791769177982336e-05  5.5677433693121870e-05  5.5515047008943233e-05  5.5290687750079591e-05  5.4989125764431751e-05  5.4594482578535021e-05  5.4091175646456955e-05  5.3464831236748665e-05  5.2701130824985965e-05  5.1766051745886695e-05  5.0403522388600129e-05  4.7419617981784162e-05  4.2572995698085327e-05  3.7664422852985005e-05  3.3472524936583528e-05  3.0037069418487140e-05  2.7222886781920706e-05  2.4896666915823260e-05  2.2954537613117816e-05  2.1326270759017412e-05  1.9992448285690793e-05  1.9057597387465353e-05  1.8992777047058209e-05  2.1312542413094016e-05  2.6288261264674137e-05  2.7274778560199577e-05  2.6598571789102653e-05  2.5378679837080982e-05  2.3960712219896752e-05  2.2449249028497477e-05  2.0877966568812507e-05  1.9262900457460748e-05  1.7618697559585936e-05  1.5962905078024423e-05  1.4316201294538414e-05  1.2701103258669369e-05  1.1139864789113297e-05  9.6511623766333332e-06  8.2429768514185364e-06  6.8923852708886405e-06  5.4821210832979751e-06  3.6053900378232135e-06  0.0000000000000000e+00  6.0000000000000002e-05  5.7637329969751586e-05  5.6703397986051655e-05  5.6401549408602073e-05  5.6296470098657238e-05  5.6246982210486389e-05  5.6204998564259308e-05  5.6150702230279090e-05  5.6071857732331015e-05  5.5957177640726279e-05  5.5794258369159788e-05  5.5569125407602972e-05  5.5266480387439222e-05  5.4870367620892808e-05  5.4365126132819316e-05  5.3736332995278123e-05  5.2969869335301493e-05  5.2033954121762129e-05  5.0693479064316636e-05  4.7903543009373576e-05  4.3323915856554866e-05  3.8584865174564622e-05  3.4451062858856425e-05  3.1020000503713551e-05  2.8186973033757467e-05  2.5831572545185233e-05  2.3855447865015288e-05  2.2190269330738338e-05  2.0815299915188645e-05  1.9827953580255772e-05  1.9678555289208373e-05  2.1832524028033748e-05  2.6600297076374273e-05  2.7478605620728592e-05  2.6758252557939748e-05  2.5519271829853573e-05  2.4090281079873953e-05  2.2570179782983913e-05  2.0990834106815349e-05  1.9367719547218933e-05  1.7715337513235956e-05  1.6051240684976197e-05  1.4396177301747544e-05  1.2772766306620100e-05  1.1203379130308219e-05  9.7068154084987397e-06  8.2911789320572278e-06  6.9336602110601215e-06  5.5169563143916244e-06  3.6324962781534411e-06  0.0000000000000000e+00  6.0000000000000002e-05  5.7837257548099982e-05  5.6960203015808825e-05  5.6675644360913790e-05  5.6575985082167516e-05  5.6528169141079389e-05  5.6486643280488665e-05  5.6432373711616595e-05  5.6353349759626691e-05  5.6238325226905098e-05  5.6074872064127208e-05  5.5848962959732845e-05  5.5545231208363582e-05  5.5147643626686912e-05  5.4640460601915209e-05  5.4009211088913585e-05  5.3239988294759042e-05  5.2303365023605957e-05  5.0986371151861330e-05  4.8376998426040160e-05  4.4047399732043656e-05  3.9484993015430379e-05  3.5424387470447070e-05  3.2010101178806009e-05  2.9167001207014405e-05  2.6788365186519579e-05  2.4782126243402845e-05  2.3082385943611597e-05  2.1667346419353718e-05  2.0627184873527027e-05  2.0391143781113543e-05  2.2376575539429585e-05  2.6926981594902264e-05  2.7687621872583936e-05  2.6920052577275338e-05  2.5661004487539599e-05  2.4220660931032602e-05  2.2691793480084244e-05  2.1104318603480641e-05  1.9473108068994462e-05  1.7812504260619031e-05  1.6140061257010208e-05  1.4476596247433512e-05  1.2844830108037650e-05  1.1267252306417845e-05  9.7627861835607870e-06  8.3396589741253545e-06  6.9751739736625340e-06  5.5519806105597263e-06  3.6596281863073307e-06  0.0000000000000000e+00  6.0000000000000002e-05  5.8033324729423769e-05  5.7216692090159632e-05  5.6950605228541961e-05  5.6856740468821755e-05  5.6810714858201524e-05  5.6769684052201789e-05  5.6715452721457736e-05  5.6636252407855838e-05  5.6520883541001749e-05  5.6356895165604803e-05  5.6130207472135534e-05  5.5825385287588185e-05  5.542631764528109