<?xml version="1.0"?>
<VTKFile type="UnstructuredGrid"  version="0.1"  >
<UnstructuredGrid>
<Piece  NumberOfPoints="2601" NumberOfCells="5000">
<Points>
<DataArray  type="Float64"  NumberOfComponents="3"  format="ascii">-1 0 0  -0.96 0 0  -0.92 0 0  -0.88 0 0  -0.84 0 0  -0.8 0 0  -0.76 0 0  -0.72 0 0  -0.6799999999999999 0 0  -0.64 0 0  -0.6 0 0  -0.5600000000000001 0 0  -0.52 0 0  -0.48 0 0  -0.4399999999999999 0 0  -0.4 0 0  -0.36 0 0  -0.32 0 0  -0.28 0 0  -0.24 0 0  -0.2 0 0  -0.16 0 0  -0.12 0 0  -0.07999999999999996 0 0  -0.04000000000000004 0 0  0 0 0  0.04000000000000004 0 0  0.08000000000000007 0 0  0.1200000000000001 0 0  0.1599999999999999 0 0  0.2 0 0  0.24 0 0  0.28 0 0  0.3200000000000001 0 0  0.3600000000000001 0 0  0.3999999999999999 0 0  0.4399999999999999 0 0  0.48 0 0  0.52 0 0  0.5600000000000001 0 0  0.6000000000000001 0 0  0.6399999999999999 0 0  0.6799999999999999 0 0  0.72 0 0  0.76 0 0  0.8 0 0  0.8400000000000001 0 0  0.8799999999999999 0 0  0.9199999999999999 0 0  0.96 0 0  1 0 0  -1 0.016 0  -0.96 0.016 0  -0.92 0.016 0  -0.88 0.016 0  -0.84 0.016 0  -0.8 0.016 0  -0.76 0.016 0  -0.72 0.016 0  -0.6799999999999999 0.016 0  -0.64 0.016 0  -0.6 0.016 0  -0.5600000000000001 0.016 0  -0.52 0.016 0  -0.48 0.016 0  -0.4399999999999999 0.016 0  -0.4 0.016 0  -0.36 0.016 0  -0.32 0.016 0  -0.28 0.016 0  -0.24 0.016 0  -0.2 0.016 0  -0.16 0.016 0  -0.12 0.016 0  -0.07999999999999996 0.016 0  -0.04000000000000004 0.016 0  0 0.016 0  0.04000000000000004 0.016 0  0.08000000000000007 0.016 0  0.1200000000000001 0.016 0  0.1599999999999999 0.016 0  0.2 0.016 0  0.24 0.016 0  0.28 0.016 0  0.3200000000000001 0.016 0  0.3600000000000001 0.016 0  0.3999999999999999 0.016 0  0.4399999999999999 0.016 0  0.48 0.016 0  0.52 0.016 0  0.5600000000000001 0.016 0  0.6000000000000001 0.016 0  0.6399999999999999 0.016 0  0.6799999999999999 0.016 0  0.72 0.016 0  0.76 0.016 0  0.8 0.016 0  0.8400000000000001 0.016 0  0.8799999999999999 0.016 0  0.9199999999999999 0.016 0  0.96 0.016 0  1 0.016 0  -1 0.032 0  -0.96 0.032 0  -0.92 0.032 0  -0.88 0.032 0  -0.84 0.032 0  -0.8 0.032 0  -0.76 0.032 0  -0.72 0.032 0  -0.6799999999999999 0.032 0  -0.64 0.032 0  -0.6 0.032 0  -0.5600000000000001 0.032 0  -0.52 0.032 0  -0.48 0.032 0  -0.4399999999999999 0.032 0  -0.4 0.032 0  -0.36 0.032 0  -0.32 0.032 0  -0.28 0.032 0  -0.24 0.032 0  -0.2 0.032 0  -0.16 0.032 0  -0.12 0.032 0  -0.07999999999999996 0.032 0  -0.04000000000000004 0.032 0  0 0.032 0  0.04000000000000004 0.032 0  0.08000000000000007 0.032 0  0.1200000000000001 0.032 0  0.1599999999999999 0.032 0  0.2 0.032 0  0.24 0.032 0  0.28 0.032 0  0.3200000000000001 0.032 0  0.3600000000000001 0.032 0  0.3999999999999999 0.032 0  0.4399999999999999 0.032 0  0.48 0.032 0  0.52 0.032 0  0.5600000000000001 0.032 0  0.6000000000000001 0.032 0  0.6399999999999999 0.032 0  0.6799999999999999 0.032 0  0.72 0.032 0  0.76 0.032 0  0.8 0.032 0  0.8400000000000001 0.032 0  0.8799999999999999 0.032 0  0.9199999999999999 0.032 0  0.96 0.032 0  1 0.032 0  -1 0.04800000000000001 0  -0.96 0.04800000000000001 0  -0.92 0.04800000000000001 0  -0.88 0.04800000000000001 0  -0.84 0.04800000000000001 0  -0.8 0.04800000000000001 0  -0.76 0.04800000000000001 0  -0.72 0.04800000000000001 0  -0.6799999999999999 0.04800000000000001 0  -0.64 0.04800000000000001 0  -0.6 0.04800000000000001 0  -0.5600000000000001 0.04800000000000001 0  -0.52 0.04800000000000001 0  -0.48 0.04800000000000001 0  -0.4399999999999999 0.04800000000000001 0  -0.4 0.04800000000000001 0  -0.36 0.04800000000000001 0  -0.32 0.04800000000000001 0  -0.28 0.04800000000000001 0  -0.24 0.04800000000000001 0  -0.2 0.04800000000000001 0  -0.16 0.04800000000000001 0  -0.12 0.04800000000000001 0  -0.07999999999999996 0.04800000000000001 0  -0.04000000000000004 0.04800000000000001 0  0 0.04800000000000001 0  0.04000000000000004 0.04800000000000001 0  0.08000000000000007 0.04800000000000001 0  0.1200000000000001 0.04800000000000001 0  0.1599999999999999 0.04800000000000001 0  0.2 0.04800000000000001 0  0.24 0.04800000000000001 0  0.28 0.04800000000000001 0  0.3200000000000001 0.04800000000000001 0  0.3600000000000001 0.04800000000000001 0  0.3999999999999999 0.04800000000000001 0  0.4399999999999999 0.04800000000000001 0  0.48 0.04800000000000001 0  0.52 0.04800000000000001 0  0.5600000000000001 0.04800000000000001 0  0.6000000000000001 0.04800000000000001 0  0.6399999999999999 0.04800000000000001 0  0.6799999999999999 0.04800000000000001 0  0.72 0.04800000000000001 0  0.76 0.04800000000000001 0  0.8 0.04800000000000001 0  0.8400000000000001 0.04800000000000001 0  0.8799999999999999 0.04800000000000001 0  0.9199999999999999 0.04800000000000001 0  0.96 0.04800000000000001 0  1 0.04800000000000001 0  -1 0.064 0  -0.96 0.064 0  -0.92 0.064 0  -0.88 0.064 0  -0.84 0.064 0  -0.8 0.064 0  -0.76 0.064 0  -0.72 0.064 0  -0.6799999999999999 0.064 0  -0.64 0.064 0  -0.6 0.064 0  -0.5600000000000001 0.064 0  -0.52 0.064 0  -0.48 0.064 0  -0.4399999999999999 0.064 0  -0.4 0.064 0  -0.36 0.064 0  -0.32 0.064 0  -0.28 0.064 0  -0.24 0.064 0  -0.2 0.064 0  -0.16 0.064 0  -0.12 0.064 0  -0.07999999999999996 0.064 0  -0.04000000000000004 0.064 0  0 0.064 0  0.04000000000000004 0.064 0  0.08000000000000007 0.064 0  0.1200000000000001 0.064 0  0.1599999999999999 0.064 0  0.2 0.064 0  0.24 0.064 0  0.28 0.064 0  0.3200000000000001 0.064 0  0.3600000000000001 0.064 0  0.3999999999999999 0.064 0  0.4399999999999999 0.064 0  0.48 0.064 0  0.52 0.064 0  0.5600000000000001 0.064 0  0.6000000000000001 0.064 0  0.6399999999999999 0.064 0  0.6799999999999999 0.064 0  0.72 0.064 0  0.76 0.064 0  0.8 0.064 0  0.8400000000000001 0.064 0  0.8799999999999999 0.064 0  0.9199999999999999 0.064 0  0.96 0.064 0  1 0.064 0  -1 0.08 0  -0.96 0.08 0  -0.92 0.08 0  -0.88 0.08 0  -0.84 0.08 0  -0.8 0.08 0  -0.76 0.08 0  -0.72 0.08 0  -0.6799999999999999 0.08 0  -0.64 0.08 0  -0.6 0.08 0  -0.5600000000000001 0.08 0  -0.52 0.08 0  -0.48 0.08 0  -0.4399999999999999 0.08 0  -0.4 0.08 0  -0.36 0.08 0  -0.32 0.08 0  -0.28 0.08 0  -0.24 0.08 0  -0.2 0.08 0  -0.16 0.08 0  -0.12 0.08 0  -0.07999999999999996 0.08 0  -0.04000000000000004 0.08 0  0 0.08 0  0.04000000000000004 0.08 0  0.08000000000000007 0.08 0  0.1200000000000001 0.08 0  0.1599999999999999 0.08 0  0.2 0.08 0  0.24 0.08 0  0.28 0.08 0  0.3200000000000001 0.08 0  0.3600000000000001 0.08 0  0.3999999999999999 0.08 0  0.4399999999999999 0.08 0  0.48 0.08 0  0.52 0.08 0  0.5600000000000001 0.08 0  0.6000000000000001 0.08 0  0.6399999999999999 0.08 0  0.6799999999999999 0.08 0  0.72 0.08 0  0.76 0.08 0  0.8 0.08 0  0.8400000000000001 0.08 0  0.8799999999999999 0.08 0  0.9199999999999999 0.08 0  0.96 0.08 0  1 0.08 0  -1 0.09600000000000002 0  -0.96 0.09600000000000002 0  -0.92 0.09600000000000002 0  -0.88 0.09600000000000002 0  -0.84 0.09600000000000002 0  -0.8 0.09600000000000002 0  -0.76 0.09600000000000002 0  -0.72 0.09600000000000002 0  -0.6799999999999999 0.09600000000000002 0  -0.64 0.09600000000000002 0  -0.6 0.09600000000000002 0  -0.5600000000000001 0.09600000000000002 0  -0.52 0.09600000000000002 0  -0.48 0.09600000000000002 0  -0.4399999999999999 0.09600000000000002 0  -0.4 0.09600000000000002 0  -0.36 0.09600000000000002 0  -0.32 0.09600000000000002 0  -0.28 0.09600000000000002 0  -0.24 0.09600000000000002 0  -0.2 0.09600000000000002 0  -0.16 0.09600000000000002 0  -0.12 0.09600000000000002 0  -0.07999999999999996 0.09600000000000002 0  -0.04000000000000004 0.09600000000000002 0  0 0.09600000000000002 0  0.04000000000000004 0.09600000000000002 0  0.08000000000000007 0.09600000000000002 0  0.1200000000000001 0.09600000000000002 0  0.1599999999999999 0.09600000000000002 0  0.2 0.09600000000000002 0  0.24 0.09600000000000002 0  0.28 0.09600000000000002 0  0.3200000000000001 0.09600000000000002 0  0.3600000000000001 0.09600000000000002 0  0.3999999999999999 0.09600000000000002 0  0.4399999999999999 0.09600000000000002 0  0.48 0.09600000000000002 0  0.52 0.09600000000000002 0  0.5600000000000001 0.09600000000000002 0  0.6000000000000001 0.09600000000000002 0  0.6399999999999999 0.09600000000000002 0  0.6799999999999999 0.09600000000000002 0  0.72 0.09600000000000002 0  0.76 0.09600000000000002 0  0.8 0.09600000000000002 0  0.8400000000000001 0.09600000000000002 0  0.8799999999999999 0.09600000000000002 0  0.9199999999999999 0.09600000000000002 0  0.96 0.09600000000000002 0  1 0.09600000000000002 0  -1 0.112 0  -0.96 0.112 0  -0.92 0.112 0  -0.88 0.112 0  -0.84 0.112 0  -0.8 0.112 0  -0.76 0.112 0  -0.72 0.112 0  -0.6799999999999999 0.112 0  -0.64 0.112 0  -0.6 0.112 0  -0.5600000000000001 0.112 0  -0.52 0.112 0  -0.48 0.112 0  -0.4399999999999999 0.112 0  -0.4 0.112 0  -0.36 0.112 0  -0.32 0.112 0  -0.28 0.112 0  -0.24 0.112 0  -0.2 0.112 0  -0.16 0.112 0  -0.12 0.112 0  -0.07999999999999996 0.112 0  -0.04000000000000004 0.112 0  0 0.112 0  0.04000000000000004 0.112 0  0.08000000000000007 0.112 0  0.1200000000000001 0.112 0  0.1599999999999999 0.112 0  0.2 0.112 0  0.24 0.112 0  0.28 0.112 0  0.3200000000000001 0.112 0  0.3600000000000001 0.112 0  0.3999999999999999 0.112 0  0.4399999999999999 0.112 0  0.48 0.112 0  0.52 0.112 0  0.5600000000000001 0.112 0  0.6000000000000001 0.112 0  0.6399999999999999 0.112 0  0.6799999999999999 0.112 0  0.72 0.112 0  0.76 0.112 0  0.8 0.112 0  0.8400000000000001 0.112 0  0.8799999999999999 0.112 0  0.9199999999999999 0.112 0  0.96 0.112 0  1 0.112 0  -1 0.128 0  -0.96 0.128 0  -0.92 0.128 0  -0.88 0.128 0  -0.84 0.128 0  -0.8 0.128 0  -0.76 0.128 0  -0.72 0.128 0  -0.6799999999999999 0.128 0  -0.64 0.128 0  -0.6 0.128 0  -0.5600000000000001 0.128 0  -0.52 0.128 0  -0.48 0.128 0  -0.4399999999999999 0.128 0  -0.4 0.128 0  -0.36 0.128 0  -0.32 0.128 0  -0.28 0.128 0  -0.24 0.128 0  -0.2 0.128 0  -0.16 0.128 0  -0.12 0.128 0  -0.07999999999999996 0.128 0  -0.04000000000000004 0.128 0  0 0.128 0  0.04000000000000004 0.128 0  0.08000000000000007 0.128 0  0.1200000000000001 0.128 0  0.1599
[...]
<PointData  Scalars="f_100"> 
<DataArray  type="Float64"  Name="f_100"  format="ascii">6.0000000000000002e-05  5.4156132665665042e-05  5.2649536088179101e-05  5.1809506997524148e-05  5.0975600515372637e-05  4.9907335721214685e-05  4.8513520225246922e-05  4.6778710260757013e-05  4.4742077710353709e-05  4.2485820845761497e-05  4.0120788534241519e-05  3.7768289668093102e-05  3.5541300058446505e-05  3.3529000481921940e-05  3.1787290325588337e-05  3.0335664970495043e-05  2.9157398977869726e-05  2.8185161863973480e-05  2.7187752834003090e-05  2.2267693026769491e-05  1.6393784778164715e-05  1.3658942776063288e-05  1.1690484174032877e-05  1.0087260355263309e-05  8.6859600032577684e-06  7.4098982040750537e-06  6.2283812171577627e-06  5.1389937735915166e-06  4.1606698237784946e-06  3.3462838200919922e-06  2.8606450241321342e-06  3.3984583904693149e-06  4.3262478205279628e-06  3.7734662225677196e-06  2.8898874682322309e-06  2.0729129962734563e-06  1.4256512280067062e-06  9.4862122558588330e-07  6.1308357684469485e-07  3.8563297955732529e-07  2.3638669824398339e-07  1.4135435749786022e-07  8.2532311496238385e-08  4.7090633323709602e-08  2.6278059770036168e-08  1.4352887576792012e-08  7.6784706336638972e-09  4.0235326626513595e-09  2.0506715961747711e-09  9.3412896067213251e-10  0.0000000000000000e+00  6.0000000000000002e-05  5.4430465691542937e-05  5.2916688417027668e-05  5.2072573836369175e-05  5.1235643343197271e-05  5.0163647924754038e-05  4.8764623137386921e-05  4.7022790564854383e-05  4.4977288460541667e-05  4.2710548723177115e-05  4.0333879620605211e-05  3.7969198822415138e-05  3.5730138413260229e-05  3.3706479438978758e-05  3.1954584093020213e-05  3.0494228717655759e-05  2.9308789951138392e-05  2.8331048528452968e-05  2.7316445876305520e-05  2.2845056684426124e-05  1.7206698753246326e-05  1.4340985335064988e-05  1.2271757344359104e-05  1.0590151703697320e-05  9.1227257479788425e-06  7.7874682018806099e-06  6.5510665090035518e-06  5.4101379523468504e-06  4.3835718653819311e-06  3.5243201562181912e-06  2.9961126329100832e-06  3.4406054729420540e-06  4.3499811999280016e-06  3.7976305959757616e-06  2.9091131756118926e-06  2.0870538755172855e-06  1.4355815800330558e-06  9.5535431838334899e-07  6.1751184084141742e-07  3.8846448117855849e-07  2.3814941782237492e-07  1.4242392023275426e-07  8.3165452732202930e-08  4.7456610594639232e-08  2.6484806827593551e-08  1.4467127463838819e-08  7.7402649118623575e-09  4.0562868118825650e-09  2.0677353507261751e-09  9.4308276346012122e-10  0.0000000000000000e+00  6.0000000000000002e-05  5.4700745561087092e-05  5.3183014897772044e-05  5.2336276974418324e-05  5.1496776890918292e-05  5.0421184237030672e-05  4.9016977487677070e-05  4.7268110734403264e-05  4.5213709530385538e-05  4.2936446279744296e-05  4.0548091719831876e-05  3.8171174739696567e-05  3.5919986334657402e-05  3.3884910650759813e-05  3.2122775552351969e-05  3.0653642127426914e-05  2.9461004023419067e-05  2.8477868064769214e-05  2.7449706802139322e-05  2.3373353167758057e-05  1.8012863785898267e-05  1.5021354942094807e-05  1.2857690480130553e-05  1.1100740137382396e-05  9.5686329107515574e-06  8.1747023401795467e-06  6.8833134359092115e-06  5.6902848961347517e-06  4.6145719642217848e-06  3.7092301502380208e-06  3.1362310294648021e-06  3.4948544331164145e-06  4.3783381972078784e-06  3.8233930821764113e-06  2.9289022200670363e-06  2.1014242920794156e-06  1.4456255414967253e-06  9.6215309168538355e-07  6.2198124329028759e-07  3.9132237998274630e-07  2.3992899780338165e-07  1.4350407015498212e-07  8.3805098496089264e-08  4.7826491901855205e-08  2.6693842682537541e-08  1.4582678577597665e-08  7.8027937692619098e-09  4.0894438226604204e-09  2.0850139568318597e-09  9.5211013542585017e-10  0.0000000000000000e+00  6.0000000000000002e-05  5.4966175690741098e-05  5.3448475484193943e-05  5.2600610739001552e-05  5.1759005290785310e-05  5.0679952228152754e-05  4.9270592123181237e-05  4.7514679958774655e-05  4.5451349861440860e-05  4.3163521748964847e-05  4.0763432019176532e-05  3.8374223379627643e-05  3.6110848546359613e-05  3.4064297749780097e-05  3.2291867490655854e-05  3.0813907389754878e-05  2.9614042675810024e-05  2.8625611768555354e-05  2.7587247923144222e-05  2.3859240814947532e-05  1.8792123531854870e-05  1.5696436465499803e-05  1.3446725114612597e-05  1.1618236077695901e-05  1.0023321081595118e-05  8.5715021345052182e-06  7.2251834247549426e-06  5.9795879260133492e-06  4.8538727925923367e-06  3.9012589054577694e-06  3.2815597252703504e-06  3.5598445296425726e-06  4.4113929436448421e-06  3.8507794786722146e-06  2.9492627488244907e-06  2.1160257032179550e-06  1.4557826564040318e-06  9.6901667278787646e-07  6.2649094743813895e-07  3.9420599716154635e-07  2.4172493033445875e-07  1.4459444739824907e-07  8.4451004608238856e-08  4.8200117691610298e-08  2.6905066572407647e-08  1.4699479250701118e-08  7.8660205360319253e-09  4.1229823821468882e-09  2.1024949209985152e-09  9.6120170193629589e-10  0.0000000000000000e+00  6.0000000000000002e-05  5.5226197459866860e-05  5.3713046259923510e-05  5.2865573392058500e-05  5.2022333690768482e-05  5.0939959503816469e-05  4.9525475575592353e-05  4.7762506998271322e-05  4.5690217972883034e-05  4.3391783028368625e-05  4.0979907509759887e-05  3.8578350671442888e-05  3.6302729904709311e-05  3.4244644637346398e-05  3.2461863057302064e-05  3.0975027103047692e-05  2.9767907805020983e-05  2.8774274011317460e-05  2.7728779485479895e-05  2.4308638025584329e-05  1.9534761759699749e-05  1.6363632589127452e-05  1.4037516902602784e-05  1.2141945932090735e-05  1.0486485491632099e-05  8.9778069299631941e-06  7.5767675644205058e-06  6.2782262053756112e-06  5.1016988574537769e-06  4.1006605349294964e-06  3.4325755277050230e-06  3.6345917528706919e-06  4.4492037018503223e-06  3.8798092360574531e-06  2.9702006624988575e-06  2.1308591303927649e-06  1.4660525529530822e-06  9.7594438382870231e-07  6.3104030330806287e-07  3.9711480326827878e-07  2.4353681764121635e-07  1.4569476908442808e-07  8.5102978567005725e-08  4.8577361883809826e-08  2.7118398725371765e-08  1.4817480588947509e-08  7.9299161024028276e-09  4.1568855546226578e-09  2.1201683170373837e-09  9.7035060506832178e-10  0.0000000000000000e+00  6.0000000000000002e-05  5.5480446867139765e-05  5.3976717342962787e-05  5.3131166937949294e-05  5.2286768239310682e-05  5.1201213754823086e-05  4.9781636138664297e-05  4.8011600271138248e-05  4.5930322044301161e-05  4.3621237746289569e-05  4.1197525028442521e-05  3.8783562526291882e-05  3.6495635381783437e-05  3.4425955441943705e-05  3.2632765704894261e-05  3.1137004204814479e-05  2.9922601637963901e-05  2.8923851364499831e-05  2.7874017244218753e-05  2.4726728942420351e-05  2.0237129416234205e-05  1.7020865305426619e-05  1.4628871876711075e-05  1.2671248246511917e-05  1.0957865744897264e-05  9.3935888830804874e-06  7.9381845824578533e-06  6.5864038827409824e-06  5.3582966126114045e-06  4.3077025198421894e-06  3.5896981445536997e-06  3.7183894791713716e-06  4.4918127164682516e-06  3.9104956005172942e-06  2.9917197037635317e-06  2.1459251475798914e-06  1.4764349031501891e-06  9.8293569984020052e-07  6.3562881224695670e-07  4.0004839082356312e-07  2.4536435202726682e-07  1.4680481535437742e-07  8.5760870158595883e-08  4.8958125775222206e-08  2.7333776526887451e-08  1.4936644132354442e-08  7.9944575306644478e-09  4.1911399760507920e-09  2.1380263152972682e-09  9.7955202313341692e-10  0.0000000000000000e+00  6.0000000000000002e-05  5.5728718562066401e-05  5.4239491413042583e-05  5.3397396967870106e-05  5.2552316072565853e-05  5.1463722797853896e-05  5.0039081932007158e-05  4.8261967925202843e-05  4.6171669983791240e-05  4.3851893316691145e-05  4.1416291292087888e-05  3.8989864847188082e-05  3.6689570051273215e-05  3.4608234484812966e-05  3.2804579140565555e-05  3.1299841914633332e-05  3.0078126663306412e-05  2.9074341898381568e-05  2.8022687766225174e-05  2.5118012892929873e-05  2.0899025917421219e-05  1.7666431863346276e-05  1.5219729902412560e-05  1.3205586959906626e-05  1.1437243425981743e-05  9.8188528259792899e-06  8.3095816631351154e-06  6.9043510969921407e-06  5.6239356964369931e-06  4.5226689708782340e-06  3.7533094308483457e-06  3.8107369020232663e-06  4.5392466933879940e-06  3.9428457215802209e-06  3.0138215308712122e-06  2.1612238715588368e-06  1.4869293896121709e-06  9.8999021432185105e-07  6.4025609785717714e-07  4.0300645187183576e-07  2.4720729950040398e-07  1.4792441793931708e-07  8.6424563779646312e-08  4.9342333057823600e-08  2.7551151389377656e-08  1.5056939946269399e-08  8.0596269230080743e-09  4.2257351974466614e-09  2.1560627991016953e-09  9.8880277784769043e-10  0.0000000000000000e+00  6.0000000000000002e-05  5.5970936046620051e-05  5.4501382679202094e-05  5.3664272529550081e-05  5.2818985302708517e-05  5.1727494608735074e-05  5.0297820953554306e-05  4.8513617896836047e-05  4.6414269483956207e-05  4.4083756984183159e-05  4.1636212925601486e-05  3.9197263537010253e-05  3.6884539076684341e-05  3.4791486251482214e-05  3.2977307285822350e-05  3.1463543687270565e-05  3.0234485576617176e-05  2.9225744627811124e-05  2.8174531950689215e-05  2.5486373353893957e-05  2.1522138448350208e-05  1.8298987434991171e-05  1.5809165938600280e-05  1.3744473144942672e-05  1.1924444385504841e-05  1.0253638775968797e-05  8.6911368516318828e-06  7.2323260581593511e-06  5.8989108399936573e-06  4.7458633519100059e-06  3.9237680757985428e-06  3.9112873940977094e-06  4.5915175997380130e-06  3.9768607330928735e-06  3.0365057800977093e-06  2.1767549543840896e-06  1.4975356784384457e-06  9.9710761103110742e-07  6.4492188217543654e-07  4.0598875959737210e-07  2.4906548636841103e-07  1.4905345081084899e-07  8.7093972160123839e-08  4.9729925748270760e-08  2.7770486195957985e-08  1.5178345063441583e-08  8.1254104980401446e-09  4.2606631495516816e-09  2.1742730521777804e-09  9.9810101363497928e-10  0.0000000000000000e+00  6.0000000000000002e-05  5.6207127037222958e-05  5.4762416150385170e-05  5.3931806013792279e-05  5.3086785006222724e-05  5.1992537349229897e-05  5.0557861122610471e-05  4.8766557959451706e-05  4.6658128067957483e-05  4.4316835860988294e-05  4.1857296484881231e-05  3.9405764504939131e-05  3.7080547701482621e-05  3.4975715368225475e-05  3.3150954243440267e-05  3.1628113174159236e-05  3.0391681236419798e-05  2.9378059080331595e-05  2.8329307172623779e-05  2.5835152659052238e-05  2.2109119058019778e-05  1.8917556530572591e-05  1.6396397533077562e-05  1.4287490923468751e-05  1.2419343500961586e-05  1.0698025912298904e-05  9.0830623804248673e-06  7.5706177821726443e-06  6.1835442029929388e-06  4.9776109867756554e-06  4.1014209957064766e-06  4.0198111980812332e-06  4.6486235815688306e-06  4.0125358148038121e-06  3.0597701204375835e-06  2.1925175781767463e-06  1.5082533972232451e-06  1.0042876409200986e-06  6.4962596616563682e-07  4.0899515326911107e-07  2.5093878826668149e-07  1.5019182253161883e-07  8.7769031231052036e-08  5.0120860861776566e-08  2.7991753212883911e-08  1.5300842212490459e-08  8.1917978374834164e-09  4.2959177063858636e-09  2.1926535038774750e-09  1.0074459362817747e-09  0.0000000000000000e+00  6.0000000000000002e-05  5.6437403141012586e-05  5.5022627107086186e-05  5.4200013051558874e-05  5.3355725211331925e-05  5.2258859388231700e-05  5.0819210315058902e-05  4.9020795763371194e-05  4.6903253127381999e-05  4.4551136957301925e-05  4.2079548475607462e-05  3.9615373671637489e-05  3.7277601240870102e-05  3.5160926582600125e-05  3.3325524270177574e-05  3.1793554191762107e-05  3.0549716629020802e-05  2.9531284965525114e-05  2.8486788378969869e-05  2.6167224959300478e-05  2.2663045796104569e-05  1.9521537014386354e-05  1.6980793888442544e-05  1.4834305306159035e-05  1.2921870741850453e-05  1.1152137394005208e-05  9.4856085640815045e-06  7.9195492524051863e-06  6.4781880081195263e-06  5.2182615278692502e-06  4.2866123370623051e-06  4.1361684405736549e-06  4.7105498681388542e-06  4.0498602411188676e-06  3.0836103032690708e-06  2.2085104523147811e-06  1.5190821174331907e-06  1.0115301033349571e-06  6.5436821375936655e-07  4.1202552591525561e-07  2.5282712117717558e-07  1.5133946999726952e-07  8.8449695928121403e-08  5.0515107694123989e-08  2.8214932384682895e-08  1.5424418780065272e-08  8.2587812716680659e-09  4.3314943293933407e-09  2.2112015214446421e-09  1.0168376004126521e-09  0.0000000000000000e+00  6.0000000000000002e-05  5.6661943137600643e-05  5.5282060699267393e-05  5.4468912416884757e-05  5.3625816883931757e-05  5.2526469318094104e-05  5.1081876392033605e-05  4.9276338868559495e-05  4.7149651953375961e-05  4.4786667206230431e-05  4.2302975368632231e-05  3.9826096973421983e-05  3.7475705074926960e-05  3.5347124747359109e-05  3.3501021754287096e-05  3.1959870695604520e-05  3.0708594840415021e-05  2.9685421927391162e-05  2.8646768401377029e-05  2.6485063680003563e-05  2.3187114609500713e-05  2.0110688067594833e-05  1.7561884447080698e-05  1.5384670741551152e-05  1.3432017905822627e-05  1.1616145681241281e-05  9.8990680714965474e-06  8.2794808843966035e-06  6.7832274043646540e-06  5.4681914826291361e-06  4.4796907435583782e-06  4.2602896006336010e-06  4.7772695808515935e-06  4.0888174227095794e-06  3.1080202092043612e-06  2.2247318130573062e-06  1.5300213405041609e-06  1.0188348307500494e-06  6.5914853881484153e-07  4.1507981423651409e-07  2.5473043407792792e-07  1.5249635331650077e-07  8.9135936760289631e-08  5.0912645600441893e-08  2.8440009941692960e-08  1.5549065963668074e-08  8.3263553781947485e-09  4.3673897772692741e-09  2.2299152405777513e-09  1.0262767371086458e-09  0.0000000000000000e+00  6.0000000000000002e-05  5.6880979272629699e-05  5.5540771616602522e-05  5.4738525932082780e-05  5.3897071911546842e-05  5.2795375966720923e-05  5.1345867223137381e-05  4.9533194771474138e-05  4.7397331762239209e-05  4.5023433484280988e-05  4.2527583612589307e-05  4.0037940365626347e-05  3.7674864642896783e-05  3.5534314807155112e-05  3.3677451196985172e-05  3.2127066758976920e-05  3.0868319033919362e-05  2.9840469364264745e-05  2.8809057694402666e-05  2.6790801895473522e-05  2.3684469401959826e-05  2.0685104226480087e-05  1.8139365993799344e-05  1.5938439706675901e-05  1.3949845675608339e-05  1.2090278173582723e-05  1.0323780470148295e-05  8.6508142253614896e-06  7.0990835218737460e-06  5.7278068471750923e-06  4.6810153645916440e-06  4.3921613754797216e-06  4.8487443980566887e-06  4.1293849458232090e-06  3.1329918939291681e-06  2.2411794256054075e-06  1.5410704871180598e-06  1.0262016764372627e-06  6.6396689447748305e-07  4.1815799035524005e-07  2.5664870292755123e-07  1.5366245162199020e-07  8.9827737003584750e-08  5.1313462179696987e-08  2.8666977262593247e-08  1.5674778080008941e-08  8.3945165728652200e-09  4.4036018693066566e-09  2.2487934271625263e-09  1.0357646145181991e-09  0.0000000000000000e+00  6.0000000000000002e-05  5.7094786065926786e-05  5.5798823792935997e-05  5.5008878372585231e-05  5.4169503084959660e-05  5.3065588405942271e-05  5.1611190705100777e-05  4.9791370927050676e-05  4.7646299716462909e-05  4.5261442628202197e-05  4.2753379644233262e-05  4.0250909825317024e-05  3.7875085438428602e-05  3.5722501787553885e-05  3.3854817197183198e-05  3.2295146555482968e-05  3.1028892432461997e-05  2.9996426303179656e-05  2.8973483662095666e-05  2.7086285269724172e-05  2.4158114341033947e-05  2.1245180725952220e-05  1.8713107796634156e-05  1.6495570973901847e-05  1.4475490797408685e-05  1.2574823058367555e-05  1.0760136981977504e-05  9.0339958495385282e-06  7.4262166976411540e-06  5.9975458707305400e-06  4.8909609573043720e-06  4.5318164648694471e-06  4.9249250489888198e-06  4.1715346134128666e-06  3.1585156344956634e-06  2.2578505885772643e-06  1.5522288892084457e-06  1.0336305045756083e-06  6.6882326451751930e-07  4.2126005507014305e-07  2.5858192574257179e-07  1.5483775964250249e-07  9.0525090405745743e-08  5.1717551790462429e-08  2.8895829945012992e-08  1.5801552000204722e-08  8.4632627758191967e-09  4.4401292923427794e-09  2.2678353643706804e-09  1.0453029255682563e-09  0.0000000000000000e+00  6.0000000000000002e-05  5.7303671217937883e-05  5.6056290118767639e-05  5.5279997369431846e-05  5.4443124077262056e-05  5.3337115956624790e-05  5.1877854776624222e-05  5.0050874766669823e-05  4.7896562942019596e-05  4.5500701448832072e-05  4.2980369896924192e-05  4.0465011353490359e-05  3.8076373005618769e-05  3.5911690785956345e-05  3.4033124438907920e-05  3.2464114344753893e-05  3.1190318304671823e-05  3.0153291317700720e-05  2.9139889698604049e-05  2.7373117872760577e-05  2.4610874682786971e-05  2.1791575279209342e-05  1.9283154646942582e-05  1.7056137363364028e-05  1.5009173263922833e-05  1.3070135304569385e-05  1.1208585414296832e-05  9.4295214261432050e-06  7.7651298602180609e-06  6.2778819611627927e-06  5.1099223439000981e-06  4.6793262097069904e-06  5.0057516245107501e-06  4.2152324916018103e-06  3.1845799772511140e-06  2.2747421408562152e-06  1.5634957843169999e-06  1.0411211823927248e-06  6.7371765629557331e-07  4.2438603234552185e-07  2.6053011856911135e-07  1.5602228489723293e-07  9.1227999308108193e-08  5.2124914337084032e-08  2.9126567045875329e-08  1.5929386688387078e-08  8.5325931389490072e-09  4.4769714432111254e-09  2.2870407603958957e-09  1.0548936979188793e-09  0.0000000000000000e+00  6.0000000000000002e-05  5.7507968265911586e-05  5.6313252144443367e-05  5.5551913307922438e-05  5.4717949420163057e-05  5.3609968190897763e-05  5.2145867430019432e-05  5.0311713712803518e-05  4.8148128542571837e-05  4.5741216742493183e-05  4.3208560807598592e-05  4.0680250976855553e-05  3.8278732935721014e-05  3.6101886964097674e-05  3.4212377680936361e-05  3.2633974460768863e-05  3.1352599954085714e-05  3.0311062480103290e-05  2.9308134038370760e-05  2.7652701504695776e-05  2.5045385811774213e-05  2.2325170248356747e-05  1.9849727912640099e-05  1.7620332896369830e-05  1.5551203432254170e-05  1.3576642760893686e-05  1.1669635241851586e-05  9.8379399450652552e-06  8.1163720661931608e-06  6.5693267356356923e-06  5.3383184205586442e-06  4.8347953169759101e-06  5.0911537014670007e-06  4.2604389645196100e-06  3.2111717883495358e-06  2.2918504707555950e-06  1.5748703119830685e-06  1.0486735740007192e-06  6.7865009506911660e-07  4.2753596481250995e-07  2.6249331218615668e-07  1.5721604539853813e-07  9.1936473108107575e-08  5.2535554276433151e-08  2.9359190460122868e-08  1.6058282824569482e-08  8.6025078232164795e-09  4.5141283000916461e-09  2.3064096729723069e-09  1.0645392221572202e-09  0.0000000000000000e+00  6.0000000000000002e-05  5.7708030698083761e-05  5.6569799763240293e-05  5.5824659221346523e-05  5.4993994477454487e-05  5.3884154931823035e-05  5.2415236720162819e-05  5.0573895190916564e-05  4.8401003611149099e-05  4.5982995300378744e-05  4.3437958822505846e-05  4.0896634749286914e-05  3.8482170864413935e-05  3.6293095541847999e-05  3.4392581748253355e-05  3.2804731302318730e-05  3.1515740710925774e-05  3.0469737340388706e-05  2.9478088487491272e-05  2.7926269287626777e-05  2.5464098323535937e-05  2.2847037838853819e-05  2.0413224900267123e-05  1.8188479333309640e-05  1.6101989035688442e-05  1.4094852330062019e-05  1.2143862823091830e-05  1.0259858089926898e-05  8.4805421835584274e-06  6.8724332178438432e-06  5.5765958667468299e-06  4.9983581158733156e-06  5.1810502830437217e-06  4.3071088001904896e-06  3.2382763075959475e-06  2.3091715274323447e-06  1.5863515118980497e-06  1.0562875356468801e-06  6.8362061940336720e-07  4.3070991009951437e-07  2.6447154940686073e-07  1.5841906776971662e-07  9.2650526999624081e-08  5.2949479804466859e-08  2.9593704412172696e-08  1.6188242496114295e-08  8.6730078165757169e-09  4.5516003173630645e-09  2.3259424475309783e-09  1.0742419949276768e-09  0.0000000000000000e+00  6.0000000000000002e-05  5.7904227281658222e-05  5.6826030868224570e-05  5.6098270679012764e-05  5.5271275415591781e-05  5.4159686250791898e-05  5.2685970771188094e-05  5.0837426639101253e-05  4.8655195239746131e-05  4.6226043916295297e-05  4.3668570401939185e-05  4.1114168753012879e-05  3.8686692469532882e-05  3.648532179208607