<?xml version="1.0"?>
<VTKFile type="UnstructuredGrid"  version="0.1"  >
<UnstructuredGrid>
<Piece  NumberOfPoints="2601" NumberOfCells="5000">
<Points>
<DataArray  type="Float64"  NumberOfComponents="3"  format="ascii">-1 0 0  -0.96 0 0  -0.92 0 0  -0.88 0 0  -0.84 0 0  -0.8 0 0  -0.76 0 0  -0.72 0 0  -0.6799999999999999 0 0  -0.64 0 0  -0.6 0 0  -0.5600000000000001 0 0  -0.52 0 0  -0.48 0 0  -0.4399999999999999 0 0  -0.4 0 0  -0.36 0 0  -0.32 0 0  -0.28 0 0  -0.24 0 0  -0.2 0 0  -0.16 0 0  -0.12 0 0  -0.07999999999999996 0 0  -0.04000000000000004 0 0  0 0 0  0.04000000000000004 0 0  0.08000000000000007 0 0  0.1200000000000001 0 0  0.1599999999999999 0 0  0.2 0 0  0.24 0 0  0.28 0 0  0.3200000000000001 0 0  0.3600000000000001 0 0  0.3999999999999999 0 0  0.4399999999999999 0 0  0.48 0 0  0.52 0 0  0.5600000000000001 0 0  0.6000000000000001 0 0  0.6399999999999999 0 0  0.6799999999999999 0 0  0.72 0 0  0.76 0 0  0.8 0 0  0.8400000000000001 0 0  0.8799999999999999 0 0  0.9199999999999999 0 0  0.96 0 0  1 0 0  -1 0.016 0  -0.96 0.016 0  -0.92 0.016 0  -0.88 0.016 0  -0.84 0.016 0  -0.8 0.016 0  -0.76 0.016 0  -0.72 0.016 0  -0.6799999999999999 0.016 0  -0.64 0.016 0  -0.6 0.016 0  -0.5600000000000001 0.016 0  -0.52 0.016 0  -0.48 0.016 0  -0.4399999999999999 0.016 0  -0.4 0.016 0  -0.36 0.016 0  -0.32 0.016 0  -0.28 0.016 0  -0.24 0.016 0  -0.2 0.016 0  -0.16 0.016 0  -0.12 0.016 0  -0.07999999999999996 0.016 0  -0.04000000000000004 0.016 0  0 0.016 0  0.04000000000000004 0.016 0  0.08000000000000007 0.016 0  0.1200000000000001 0.016 0  0.1599999999999999 0.016 0  0.2 0.016 0  0.24 0.016 0  0.28 0.016 0  0.3200000000000001 0.016 0  0.3600000000000001 0.016 0  0.3999999999999999 0.016 0  0.4399999999999999 0.016 0  0.48 0.016 0  0.52 0.016 0  0.5600000000000001 0.016 0  0.6000000000000001 0.016 0  0.6399999999999999 0.016 0  0.6799999999999999 0.016 0  0.72 0.016 0  0.76 0.016 0  0.8 0.016 0  0.8400000000000001 0.016 0  0.8799999999999999 0.016 0  0.9199999999999999 0.016 0  0.96 0.016 0  1 0.016 0  -1 0.032 0  -0.96 0.032 0  -0.92 0.032 0  -0.88 0.032 0  -0.84 0.032 0  -0.8 0.032 0  -0.76 0.032 0  -0.72 0.032 0  -0.6799999999999999 0.032 0  -0.64 0.032 0  -0.6 0.032 0  -0.5600000000000001 0.032 0  -0.52 0.032 0  -0.48 0.032 0  -0.4399999999999999 0.032 0  -0.4 0.032 0  -0.36 0.032 0  -0.32 0.032 0  -0.28 0.032 0  -0.24 0.032 0  -0.2 0.032 0  -0.16 0.032 0  -0.12 0.032 0  -0.07999999999999996 0.032 0  -0.04000000000000004 0.032 0  0 0.032 0  0.04000000000000004 0.032 0  0.08000000000000007 0.032 0  0.1200000000000001 0.032 0  0.1599999999999999 0.032 0  0.2 0.032 0  0.24 0.032 0  0.28 0.032 0  0.3200000000000001 0.032 0  0.3600000000000001 0.032 0  0.3999999999999999 0.032 0  0.4399999999999999 0.032 0  0.48 0.032 0  0.52 0.032 0  0.5600000000000001 0.032 0  0.6000000000000001 0.032 0  0.6399999999999999 0.032 0  0.6799999999999999 0.032 0  0.72 0.032 0  0.76 0.032 0  0.8 0.032 0  0.8400000000000001 0.032 0  0.8799999999999999 0.032 0  0.9199999999999999 0.032 0  0.96 0.032 0  1 0.032 0  -1 0.04800000000000001 0  -0.96 0.04800000000000001 0  -0.92 0.04800000000000001 0  -0.88 0.04800000000000001 0  -0.84 0.04800000000000001 0  -0.8 0.04800000000000001 0  -0.76 0.04800000000000001 0  -0.72 0.04800000000000001 0  -0.6799999999999999 0.04800000000000001 0  -0.64 0.04800000000000001 0  -0.6 0.04800000000000001 0  -0.5600000000000001 0.04800000000000001 0  -0.52 0.04800000000000001 0  -0.48 0.04800000000000001 0  -0.4399999999999999 0.04800000000000001 0  -0.4 0.04800000000000001 0  -0.36 0.04800000000000001 0  -0.32 0.04800000000000001 0  -0.28 0.04800000000000001 0  -0.24 0.04800000000000001 0  -0.2 0.04800000000000001 0  -0.16 0.04800000000000001 0  -0.12 0.04800000000000001 0  -0.07999999999999996 0.04800000000000001 0  -0.04000000000000004 0.04800000000000001 0  0 0.04800000000000001 0  0.04000000000000004 0.04800000000000001 0  0.08000000000000007 0.04800000000000001 0  0.1200000000000001 0.04800000000000001 0  0.1599999999999999 0.04800000000000001 0  0.2 0.04800000000000001 0  0.24 0.04800000000000001 0  0.28 0.04800000000000001 0  0.3200000000000001 0.04800000000000001 0  0.3600000000000001 0.04800000000000001 0  0.3999999999999999 0.04800000000000001 0  0.4399999999999999 0.04800000000000001 0  0.48 0.04800000000000001 0  0.52 0.04800000000000001 0  0.5600000000000001 0.04800000000000001 0  0.6000000000000001 0.04800000000000001 0  0.6399999999999999 0.04800000000000001 0  0.6799999999999999 0.04800000000000001 0  0.72 0.04800000000000001 0  0.76 0.04800000000000001 0  0.8 0.04800000000000001 0  0.8400000000000001 0.04800000000000001 0  0.8799999999999999 0.04800000000000001 0  0.9199999999999999 0.04800000000000001 0  0.96 0.04800000000000001 0  1 0.04800000000000001 0  -1 0.064 0  -0.96 0.064 0  -0.92 0.064 0  -0.88 0.064 0  -0.84 0.064 0  -0.8 0.064 0  -0.76 0.064 0  -0.72 0.064 0  -0.6799999999999999 0.064 0  -0.64 0.064 0  -0.6 0.064 0  -0.5600000000000001 0.064 0  -0.52 0.064 0  -0.48 0.064 0  -0.4399999999999999 0.064 0  -0.4 0.064 0  -0.36 0.064 0  -0.32 0.064 0  -0.28 0.064 0  -0.24 0.064 0  -0.2 0.064 0  -0.16 0.064 0  -0.12 0.064 0  -0.07999999999999996 0.064 0  -0.04000000000000004 0.064 0  0 0.064 0  0.04000000000000004 0.064 0  0.08000000000000007 0.064 0  0.1200000000000001 0.064 0  0.1599999999999999 0.064 0  0.2 0.064 0  0.24 0.064 0  0.28 0.064 0  0.3200000000000001 0.064 0  0.3600000000000001 0.064 0  0.3999999999999999 0.064 0  0.4399999999999999 0.064 0  0.48 0.064 0  0.52 0.064 0  0.5600000000000001 0.064 0  0.6000000000000001 0.064 0  0.6399999999999999 0.064 0  0.6799999999999999 0.064 0  0.72 0.064 0  0.76 0.064 0  0.8 0.064 0  0.8400000000000001 0.064 0  0.8799999999999999 0.064 0  0.9199999999999999 0.064 0  0.96 0.064 0  1 0.064 0  -1 0.08 0  -0.96 0.08 0  -0.92 0.08 0  -0.88 0.08 0  -0.84 0.08 0  -0.8 0.08 0  -0.76 0.08 0  -0.72 0.08 0  -0.6799999999999999 0.08 0  -0.64 0.08 0  -0.6 0.08 0  -0.5600000000000001 0.08 0  -0.52 0.08 0  -0.48 0.08 0  -0.4399999999999999 0.08 0  -0.4 0.08 0  -0.36 0.08 0  -0.32 0.08 0  -0.28 0.08 0  -0.24 0.08 0  -0.2 0.08 0  -0.16 0.08 0  -0.12 0.08 0  -0.07999999999999996 0.08 0  -0.04000000000000004 0.08 0  0 0.08 0  0.04000000000000004 0.08 0  0.08000000000000007 0.08 0  0.1200000000000001 0.08 0  0.1599999999999999 0.08 0  0.2 0.08 0  0.24 0.08 0  0.28 0.08 0  0.3200000000000001 0.08 0  0.3600000000000001 0.08 0  0.3999999999999999 0.08 0  0.4399999999999999 0.08 0  0.48 0.08 0  0.52 0.08 0  0.5600000000000001 0.08 0  0.6000000000000001 0.08 0  0.6399999999999999 0.08 0  0.6799999999999999 0.08 0  0.72 0.08 0  0.76 0.08 0  0.8 0.08 0  0.8400000000000001 0.08 0  0.8799999999999999 0.08 0  0.9199999999999999 0.08 0  0.96 0.08 0  1 0.08 0  -1 0.09600000000000002 0  -0.96 0.09600000000000002 0  -0.92 0.09600000000000002 0  -0.88 0.09600000000000002 0  -0.84 0.09600000000000002 0  -0.8 0.09600000000000002 0  -0.76 0.09600000000000002 0  -0.72 0.09600000000000002 0  -0.6799999999999999 0.09600000000000002 0  -0.64 0.09600000000000002 0  -0.6 0.09600000000000002 0  -0.5600000000000001 0.09600000000000002 0  -0.52 0.09600000000000002 0  -0.48 0.09600000000000002 0  -0.4399999999999999 0.09600000000000002 0  -0.4 0.09600000000000002 0  -0.36 0.09600000000000002 0  -0.32 0.09600000000000002 0  -0.28 0.09600000000000002 0  -0.24 0.09600000000000002 0  -0.2 0.09600000000000002 0  -0.16 0.09600000000000002 0  -0.12 0.09600000000000002 0  -0.07999999999999996 0.09600000000000002 0  -0.04000000000000004 0.09600000000000002 0  0 0.09600000000000002 0  0.04000000000000004 0.09600000000000002 0  0.08000000000000007 0.09600000000000002 0  0.1200000000000001 0.09600000000000002 0  0.1599999999999999 0.09600000000000002 0  0.2 0.09600000000000002 0  0.24 0.09600000000000002 0  0.28 0.09600000000000002 0  0.3200000000000001 0.09600000000000002 0  0.3600000000000001 0.09600000000000002 0  0.3999999999999999 0.09600000000000002 0  0.4399999999999999 0.09600000000000002 0  0.48 0.09600000000000002 0  0.52 0.09600000000000002 0  0.5600000000000001 0.09600000000000002 0  0.6000000000000001 0.09600000000000002 0  0.6399999999999999 0.09600000000000002 0  0.6799999999999999 0.09600000000000002 0  0.72 0.09600000000000002 0  0.76 0.09600000000000002 0  0.8 0.09600000000000002 0  0.8400000000000001 0.09600000000000002 0  0.8799999999999999 0.09600000000000002 0  0.9199999999999999 0.09600000000000002 0  0.96 0.09600000000000002 0  1 0.09600000000000002 0  -1 0.112 0  -0.96 0.112 0  -0.92 0.112 0  -0.88 0.112 0  -0.84 0.112 0  -0.8 0.112 0  -0.76 0.112 0  -0.72 0.112 0  -0.6799999999999999 0.112 0  -0.64 0.112 0  -0.6 0.112 0  -0.5600000000000001 0.112 0  -0.52 0.112 0  -0.48 0.112 0  -0.4399999999999999 0.112 0  -0.4 0.112 0  -0.36 0.112 0  -0.32 0.112 0  -0.28 0.112 0  -0.24 0.112 0  -0.2 0.112 0  -0.16 0.112 0  -0.12 0.112 0  -0.07999999999999996 0.112 0  -0.04000000000000004 0.112 0  0 0.112 0  0.04000000000000004 0.112 0  0.08000000000000007 0.112 0  0.1200000000000001 0.112 0  0.1599999999999999 0.112 0  0.2 0.112 0  0.24 0.112 0  0.28 0.112 0  0.3200000000000001 0.112 0  0.3600000000000001 0.112 0  0.3999999999999999 0.112 0  0.4399999999999999 0.112 0  0.48 0.112 0  0.52 0.112 0  0.5600000000000001 0.112 0  0.6000000000000001 0.112 0  0.6399999999999999 0.112 0  0.6799999999999999 0.112 0  0.72 0.112 0  0.76 0.112 0  0.8 0.112 0  0.8400000000000001 0.112 0  0.8799999999999999 0.112 0  0.9199999999999999 0.112 0  0.96 0.112 0  1 0.112 0  -1 0.128 0  -0.96 0.128 0  -0.92 0.128 0  -0.88 0.128 0  -0.84 0.128 0  -0.8 0.128 0  -0.76 0.128 0  -0.72 0.128 0  -0.6799999999999999 0.128 0  -0.64 0.128 0  -0.6 0.128 0  -0.5600000000000001 0.128 0  -0.52 0.128 0  -0.48 0.128 0  -0.4399999999999999 0.128 0  -0.4 0.128 0  -0.36 0.128 0  -0.32 0.128 0  -0.28 0.128 0  -0.24 0.128 0  -0.2 0.128 0  -0.16 0.128 0  -0.12 0.128 0  -0.07999999999999996 0.128 0  -0.04000000000000004 0.128 0  0 0.128 0  0.04000000000000004 0.128 0  0.08000000000000007 0.128 0  0.1200000000000001 0.128 0  0.1599
[...]
<PointData  Scalars="f_100"> 
<DataArray  type="Float64"  Name="f_100"  format="ascii">6.0000000000000002e-05  5.4178668939367151e-05  5.2714461703400484e-05  5.1945321661171628e-05  5.1216591845334106e-05  5.0288479230091554e-05  4.9063297372439208e-05  4.7511493407941952e-05  4.5652328761654513e-05  4.3546094447151807e-05  4.1284452893328844e-05  3.8976407225122913e-05  3.6731860400723465e-05  3.4646154528901353e-05  3.2788534570496720e-05  3.1195837243226166e-05  2.9869422116315075e-05  2.8758137671200704e-05  2.7642579965000348e-05  2.2580590764201014e-05  1.6604544002563681e-05  1.3847610292547679e-05  1.1891465170408310e-05  1.0321574643517403e-05  8.9645936959521423e-06  7.7346191881982601e-06  6.5927032829757763e-06  5.5303096201745489e-06  4.5644621038698956e-06  3.7548660491949118e-06  3.2954062535251833e-06  3.9933670910208835e-06  5.1394730022966095e-06  4.5694051380180372e-06  3.5811082110240250e-06  2.6348594671111896e-06  1.8615941618318789e-06  1.2738226889582527e-06  8.4723403413110875e-07  5.4873782446633306e-07  3.4649731658999015e-07  2.1350331484893597e-07  1.2847914235615632e-07  7.5564750520195578e-08  4.3470024634299331e-08  2.4477068953907958e-08  1.3499048789721351e-08  7.2905472040925904e-09  3.8259306807471347e-09  1.7859623006990119e-09  0.0000000000000000e+00  6.0000000000000002e-05  5.4452960190679923e-05  5.2981657696647598e-05  5.2208623837476460e-05  5.1477215510660460e-05  5.0545907575875420e-05  4.9316248652698197e-05  4.7758316496353382e-05  4.5891259734984359e-05  4.3775490615715785e-05  4.1503008300635060e-05  3.9183319406931514e-05  3.6926918610560589e-05  3.4829736389215110e-05  3.2961519296733231e-05  3.1359461200007894e-05  3.0025118697620161e-05  2.8907549731193661e-05  2.7773845296262304e-05  2.3166964297672658e-05  1.7427852484194026e-05  1.4537772903281368e-05  1.2480336772241617e-05  1.0832877714407537e-05  9.4114703445982759e-06  8.1244656380858950e-06  6.9298763563654724e-06  5.8177988128729860e-06  4.8048723410009926e-06  3.9506119563180631e-06  3.4475688524839708e-06  4.0419528555659927e-06  5.1671278353177529e-06  4.5981065332900791e-06  3.6044777706450406e-06  2.6524905658050794e-06  1.8743136404050464e-06  1.2826921546814428e-06  8.5323811000401346e-07  5.5269170497855757e-07  3.4903351577411711e-07  2.1508947948624198e-07  1.2944717812156507e-07  7.6141737286188815e-08  4.3806160268884561e-08  2.4668615301745522e-08  1.3605900851591521e-08  7.3489552971573045e-09  3.8573149209483322e-09  1.8029557584882756e-09  0.0000000000000000e+00  6.0000000000000002e-05  5.4723199702511415e-05  5.3248028817213727e-05  5.2472563611316101e-05  5.1738932286217347e-05  5.0804564240132566e-05  4.9570458144968267e-05  4.8006389500577618e-05  4.6131414925232190e-05  4.4006074501919999e-05  4.1722706800493511e-05  3.9391323917662715e-05  3.7123014456413805e-05  3.5014299785653489e-05  3.3135430796032548e-05  3.1523962391058376e-05  3.0181663548998443e-05  2.9057918243894163e-05  2.7909755644729948e-05  2.3703393854383396e-05  1.8244412800242895e-05  1.5226307213274901e-05  1.3073994665441239e-05  1.1352068856308443e-05  9.8677531412182380e-06  8.5243283096815159e-06  7.2770579384104500e-06  6.1148272687256875e-06  5.0539829413377833e-06  4.1538429214061854e-06  3.6047908670355163e-06  4.1041599665517872e-06  5.2000403307993092e-06  4.6286386820444840e-06  3.6285010370415321e-06  2.6703932536604327e-06  1.8871711240319175e-06  1.2916438256100491e-06  8.5929526697132524e-07  5.5668068865318378e-07  3.5159281818201795e-07  2.1669059335459975e-07  1.3042467971183220e-07  7.6724580645628953e-08  4.4145835897380825e-08  2.4862252846260442e-08  1.3713961066312436e-08  7.4080467362816555e-09  3.8890744847291919e-09  1.8200747211097263e-09  0.0000000000000000e+00  6.0000000000000002e-05  5.4988591008598969e-05  5.3513534899350840e-05  5.2737135107295740e-05  5.2001746032795564e-05  5.1064456490928504e-05  4.9825934426306674e-05  4.8255721446528316e-05  4.6372803282531586e-05  4.4237854555109011e-05  4.1943555995436426e-05  3.9600427281693134e-05  3.7320153297747687e-05  3.5199848971857177e-05  3.3310272389135212e-05  3.1689343405024090e-05  3.0339058392507096e-05  2.9209234450862710e-05  2.8050018071673258e-05  2.4196674213414553e-05  1.9033749532889018e-05  1.5909539008088860e-05  1.3670855348228926e-05  1.1878346358433808e-05  1.0333078186119799e-05  8.9341130308482643e-06  7.6343216678068029e-06  6.4215685203804396e-06  5.3120249189776709e-06  4.3648427588108041e-06  3.7677230254302897e-06  4.1784527407266678e-06  5.2382945660849797e-06  4.6610311176793560e-06  3.6531877225649144e-06  2.6885695458223063e-06  1.9001663241195499e-06  1.3006768311818542e-06  8.6540459772725196e-07  5.6070399881167364e-07  3.5417461554786653e-07  2.1830620678679684e-07  1.3141132942614300e-07  7.7313064724639128e-08  4.4488909895968406e-08  2.5057891619774057e-08  1.3823173932740642e-08  7.4677880380414918e-09  3.9211888987361539e-09  1.8373027788691037e-09  0.0000000000000000e+00  6.0000000000000002e-05  5.5248575561520614e-05  5.3778151925227091e-05  5.3002336418809367e-05  5.2265661673777484e-05  5.1325591685198335e-05  5.0082685807945920e-05  4.8506320964816837e-05  4.6615433342091953e-05  4.4470838864260871e-05  4.2165563237127199e-05  3.9810635916208987e-05  3.7518340540707059e-05  3.5386388388832891e-05  3.3486047693483702e-05  3.1855607196111261e-05  3.0497305347731877e-05  2.9361492719113657e-05  2.8194337714999129e-05  2.4652840383541728e-05  1.9785990478635943e-05  1.6584832008739600e-05  1.4269556394695701e-05  1.2411008975001916e-05  1.0807140298219980e-05  9.3537652819318598e-06  8.0017714133681338e-06  6.7382212593420102e-06  5.5792490463183134e-06  4.5838999285008506e-06  3.9369167264823237e-06  4.2637220453618929e-06  5.2819561315685147e-06  4.6953060746410570e-06  3.6785448869391927e-06  2.7070208939702466e-06  1.9132990095789297e-06  1.3097905059378447e-06  8.7156540507587596e-07  5.6476103447420735e-07  3.5677843434791236e-07  2.1993596801163170e-07  1.3240687776864413e-07  7.7907019476756571e-08  4.4835270435979932e-08  2.5255460444751283e-08  1.3933495472426530e-08  7.5281526361072761e-09  3.9536419202034276e-09  1.8546280622300321e-09  0.0000000000000000e+00  6.0000000000000002e-05  5.5502789397026775e-05  5.4041869926026024e-05  5.3268169409703726e-05  5.2530685171605020e-05  5.1587977308849604e-05  5.0340720403917499e-05  4.8758196371666015e-05  4.6859313305481371e-05  4.4705035228863771e-05  4.2388735677744724e-05  4.0021956157084026e-05  3.7717581636509048e-05  3.5573922637963120e-05  3.3662760576089696e-05  3.2022757022683302e-05  3.0656406849777168e-05  2.9514689651461006e-05  2.8342425461414388e-05  2.5077175487769746e-05  2.0497425561435883e-05  1.7250079238263665e-05  1.4868889779356393e-05  1.2949430185142287e-05  1.1289680486298999e-05  9.7832645369883834e-06  8.3795392610626186e-06  7.0650091571700370e-06  5.8559273706032646e-06  4.8113143684812253e-06  4.1128547404417681e-06  4.3591724178916139e-06  5.3310720338361742e-06  4.7314786532675175e-06  3.7045770488839621e-06  2.7257481821947258e-06  1.9265689666643984e-06  1.3189843444796461e-06  8.7777716201288162e-07  5.6885133821835953e-07  3.5940391140098185e-07  2.2157960545282297e-07  1.3341113109828372e-07  7.8506312364859080e-08  4.5184830061336735e-08  2.5454903504825923e-08  1.4044891121310682e-08  7.5891196128671826e-09  3.9864207647904453e-09  1.8720423751592174e-09  0.0000000000000000e+00  6.0000000000000002e-05  5.5751027172164850e-05  5.4304691506416487e-05  5.3534639553620342e-05  5.2796823508184951e-05  5.1851621009780060e-05  5.0600046187601070e-05  4.9011355735552881e-05  4.7104451107512356e-05  4.4940451217161508e-05  4.2613080312117484e-05  4.0234394279976711e-05  3.7917882079909158e-05  3.5762456458609314e-05  3.3840415114622189e-05  3.2190796396741002e-05  3.0816365583602525e-05  2.9668823374484412e-05  2.8494003311425693e-05  2.5474262526914419e-05  2.1167847220731852e-05  1.7903555340523910e-05  1.5467783978709557e-05  1.3493050481423904e-05  1.1780482910035245e-05  1.0222623818962437e-05  8.7677863855904050e-06  7.4021822985037347e-06  6.1423552865489524e-06  5.0474021616867521e-06  4.2959739504422602e-06  4.4642407439940775e-06  5.3856712996585047e-06  4.7695569449452724e-06  3.7312862787711042e-06  2.7447517235096613e-06  1.9399759659430073e-06  1.3282579644819802e-06  8.8403947897657306e-07  5.7297456983061875e-07  3.6205077388051112e-07  2.2323691323792224e-07  1.3442394152467514e-07  7.9110841559970588e-08  4.5537521257445861e-08  2.5656177544372930e-08  1.4157334008831162e-08  7.6506726646498774e-09  4.0195154770259750e-09  1.8895404860534353e-09  0.0000000000000000e+00  6.0000000000000002e-05  5.5993212372404545e-05  5.4566630809706993e-05  5.3801755799505631e-05  5.3064084667562517e-05  5.2116530624750391e-05  5.0860671038230703e-05  4.9265806932073329e-05  4.7350854471277932e-05  4.5177094214022683e-05  4.2838604012277388e-05  4.0447956517533393e-05  3.8119247407770363e-05  3.5951994709532491e-05  3.4019015565288134e-05  3.2359729042371008e-05  3.0977184431445483e-05  2.9823892975662526e-05  2.8648807935087208e-05  2.5848055563093789e-05  2.1798965268533026e-05  1.8543898179462007e-05  1.6065304618746656e-05  1.4041378635250838e-05  1.2279376846601634e-05  1.0671892072694492e-05  9.1667055206910632e-06  7.7500195399196569e-06  6.4388539535809676e-06  5.2924990715287928e-06  4.4866825029389801e-06  4.5785375899233059e-06  5.4457659338590587e-06  4.8095421268479198e-06  3.7586722772674085e-06  2.7640312575417647e-06  1.9535197353205432e-06  1.3376110763750544e-06  8.9035207699612302e-07  5.7713048471088128e-07  3.6471882294149593e-07  2.2490773933527615e-07  1.3544519864148384e-07  7.9720530380266566e-08  4.5893292830228462e-08  2.5859249581377637e-08  1.4270803553231102e-08  7.7127992575066713e-09  4.0529184169058235e-09  1.9071195485105283e-09  0.0000000000000000e+00  6.0000000000000002e-05  5.6229372678171614e-05  5.4827712786412144e-05  5.4069530454698125e-05  5.3332477619561960e-05  5.2382714200909026e-05  5.1122602779038742e-05  4.9521557689083359e-05  4.7598530953434364e-05  4.5414971460286003e-05  4.3065313555802228e-05  4.0662649073420511e-05  3.8321683197751513e-05  3.6142542353485358e-05  3.4198566336324625e-05  3.2529558861585915e-05  3.1138866430738447e-05  2.9979898064826727e-05  2.8806592830762923e-05  2.6201956439462435e-05  2.2393469484384519e-05  1.9170119988444176e-05  1.6660661709896651e-05  1.4593997397113279e-05  1.2786241307380686e-05  1.1131158094397783e-05  9.5765243524255095e-06  8.1088314340265812e-06  6.7457729553310545e-06  5.5469635347183590e-06  4.6853729836226209e-06  4.7018048238263965e-06  5.5113520025923137e-06  4.8514285347979137e-06  3.7867324440133336e-06  2.7835859497977522e-06  1.9671999382270802e-06  1.3470434585551046e-06  8.9671476569205357e-07  5.8131891617695943e-07  3.6740792030955179e-07  2.2659197584249929e-07  1.3647482276305551e-07  8.0335322744010025e-08  4.6252106947077104e-08  2.6064095039460646e-08  1.4385284314930798e-08  7.7754899384340414e-09  4.0866238410969927e-09  1.9247786290606842e-09  0.0000000000000000e+00  6.0000000000000002e-05  5.6459619644877892e-05  5.5087972664207176e-05  5.4337979079165749e-05  5.3602012303382589e-05  5.2650180012644221e-05  5.1385849208428197e-05  4.9778615623811135e-05  4.7847487981455799e-05  4.5654090085103792e-05  4.3293215649069186e-05  4.0878478133775001e-05  3.8525195067122199e-05  3.6334104444439332e-05  3.4379071966126930e-05  3.2700289906257239e-05  3.1301414740460126e-05  3.0136838438419042e-05  2.8967129422009357e-05  2.6538889508687199e-05  2.2954482255185439e-05  1.9781611217849163e-05  1.7253218619344479e-05  1.5150571257732489e-05  1.3301011051797663e-05  1.1600555348257370e-05  9.9975094779341934e-06  8.4789635281815703e-06  7.0634931524910681e-06  5.8111794402772799e-06  4.8924327435878356e-06  4.8338849713437677e-06  5.5824106950564645e-06  4.8952037218077785e-06  3.8154619396477467e-06  2.8034143928011249e-06  1.9810161562118022e-06  1.3565549371816987e-06  9.0312742527039149e-07  5.8553976096940641e-07  3.7011797729709236e-07  2.2828955103621775e-07  1.3751275939072449e-07  8.0955179451365607e-08  4.6613936718607396e-08  2.6270696222155606e-08  1.4500765060500458e-08  7.8387377733794889e-09  4.1206275611967322e-09  1.9425183229788139e-09  0.0000000000000000e+00  6.0000000000000002e-05  5.6684131987782962e-05  5.5347455544443053e-05  5.4607120386072382e-05  5.3872699610369666e-05  5.2918936574336861e-05  5.1650418125324947e-05  5.0036988273336220e-05  4.8097732884280712e-05  4.5894457132534644e-05  4.3522316946339414e-05  4.1095449876553055e-05  3.8729788671705147e-05  3.6526686116999759e-05  3.4560537105205494e-05  3.2871926355070896e-05  3.1464832614286947e-05  3.0294713828075227e-05  2.9130207360877300e-05  2.6861370613768494e-05  2.3485245593253057e-05  2.0378128205820015e-05  1.7842500636456556e-05  1.5710854988697405e-05  1.3823683321093564e-05  1.2080267310052951e-05  1.0429970738174499e-05  8.8607999359703061e-06  7.3924297058595710e-06  6.0855588743148518e-06  5.1082521718990773e-06  4.9746990423982983e-06  5.6589092722207003e-06  4.9408485088170170e-06  3.8448537438805575e-06  2.8235146093046626e-06  1.9949678753191641e-06  1.3661453697853913e-06  9.0958999180501519e-07  5.8979296738262909e-07  3.7284894580814788e-07  2.3000042286348920e-07  1.3855897468491492e-07  8.1580075143736277e-08  4.6978764222186950e-08  2.6479041066614643e-08  1.4617237998480025e-08  7.9025378886450416e-09  4.1549266647484529e-09  1.9603404426026268e-09  0.0000000000000000e+00  6.0000000000000002e-05  5.6903141878098910e-05  5.5606216071234272e-05  5.4876976145049802e-05  5.4144551365363348e-05  5.3188992649501306e-05  5.1916317349663301e-05  5.0296683119588112e-05  4.8349272917519124e-05  4.6136079583413075e-05  4.3752624065427784e-05  4.1313570479168701e-05  3.8935469704942624e-05  3.6720292577638041e-05  3.4742966501305123e-05  3.3044472494623062e-05  3.1629123379246427e-05  3.0453523717789897e-05  2.9295634249613794e-05  2.7171568758376734e-05  2.3988948492065276e-05  2.0959766781492512e-05  1.8428202081239736e-05  1.6274702258691307e-05  1.4354324918193400e-05  1.2570533139606376e-05  1.0874265819730625e-05  9.2547671259021959e-06  7.7330352585069536e-06  6.3705449257464788e-06  5.3332314865294787e-06  5.1242304881150165e-06  5.7408018485885957e-06  4.9883370331646405e-06  3.8748987118150084e-06  2.8438840577175844e-06  2.0090544757201755e-06  1.3758146320451019e-06  9.1610244522835382e-07  5.9407852555126575e-07  3.7560081097239660e-07  2.3172457361312467e-07  1.3961345175977727e-07  8.2209995816813036e-08  4.7346578886293783e-08  2.6689122125410680e-08  1.4734698155400272e-08  7.9668870966021702e-09  4.1895192873653377e-09  1.9782477653062691e-09  0.0000000000000000e+00  6.0000000000000002e-05  5.7116923753226967e-05  5.5864318134971992e-05  5.5147571085447939e-05  5.4417580306176645e-05  5.3460357256730295e-05  5.2183554738795629e-05  5.0557707609814165e-05  4.8602115284182977e-05  4.6378964373341338e-05  4.3984143600576604e-05  4.1532846124741074e-05  3.9142243897080584e-05  3.6914929097431626e-05  3.4926364987134805e-05  3.3217932703929021e-05  3.1794290418841476e-05  3.0613267216359940e-05  2.9463234946173718e-05  2.7471360140765390e-05  2.4468637829296514e-05  2.1526927079824259e-05  1.9010191450855694e-05  1.6842073940408388e-05  1.4893079421641921e-05  1.3071653569041103e-05  1.1330805066001289e-05  9.6613378958937579e-06  8.0858032714443656e-06  6.6666146015097687e-06  5.5677864599738935e-06  5.2825136056624288e-06  5.8280299778764450e-06  5.0376367994848332e-06  3.9055856303086013e-06  2.8645196398334241e-06  2.0232752241570032e-06  1.3855626072062516e-06  9.2266479955369027e-07  5.9839645950525021e-07  3.7837358511372090e-07  2.3346200555245789e-07  1.4067618765033231e-07  8.2844936786041921e-08  4.7717376169516152e-08  2.6900935734489383e-08  1.4853142866159287e-08  8.0317835901381005e-09  4.2244044264685605e-09  1.9962438305270444e-09  0.0000000000000000e+00  6.0000000000000002e-05  5.7325785224885558e-05  5.6121834584040793e-05  5.5418932797514202e-05  5.4691800060872650e-05  5.3733039672799770e-05  5.2452138200481995e-05  5.0820069173301525e-05  4.8856267151732547e-05  4.6623118407498207e-05  4.4216882133040705e-05  4.1753283007210648e-05  3.9350117014462479e-05  3.7110601006055092e-05  3.5110737470252123e-05  3.3392311441744784e-05  3.1960337159825306e-05  3.0773942973956344e-05  2.9632850580997058e-05  2.7762374887613912e-05  2.4927178558001877e-05  2.2080274759180633e-05  1.9588514452994090e-05  1.7413045907104707e-05  1.5440174409906877e-05  1.3583996939171700e-05  1.1800056461760003e-05  1.0081035514652499e-05  8.4512715094841350e-06  6.9742818749041200e-06  5.8123533861181142e-06  5.4496251801670829e-06  5.9205230296548190e-06  5.0887087370086498e-06  3.9369012758193799e-06  2.8854177109027144e-06  2.0376292688290073e-06  1.3953891777024949e-06  9.2927709493689177e-07  6.0274682067615461e-07  3.8116730281159872e-07  2.3521273735382014e-07  1.4174719082926281e-07  8.3484901021609022e-08  4.8091156480058630e-08  2.7114481332982719e-08  1.4972571357639237e-08  8.0972266931122630e-09  4.2595817889014990e-09  2.0143327770958967e-09  0.0000000000000000e+00  6.0000000000000002e-05  5.7530059736661093e-05  5.6378846927392300e-05  5.5691091629971019e-05  5.4967225122608378e-05  5.4007049433240155e-05  5.2722075703004935e-05  5.1083775235000935e-05  4.9111735666092373e-05  4.6868548572836346e-05  4.4450846239800188e-05  4.1974887335536335e-05  3.9559094858923862e-05  3.7307313686808158e-05  3.5296088924724764e-05  3.3567613236206145e-05  3.2127267061972477e-05  3.0935549133559135e-05  2.9804337381941308e-05  2.8046037146342614e-05  2.5367242563213957e-05  2.2620702626079206e-05  2.0163395035697340e-05  1.7987816228807144e-05  1.5995928622582715e-05  1.4108005341033001e-05  1.2282550767612400e-05  1.0514438017574429e-05  8.8300256748225384e-06  7.2941008779990752e-06  6.0673935167498210e-06  5.6256784905655214e-06  6.0181983542278510e-06  5.1415072666996057e-06  3.9688304748986607e-06  2.9065740920610468e-06  2.0521156364061012e-06  1.4052942186192826e-06  9.3593939125472532e-07  6.0712968259407235e-07  3.8398201685701516e-07  2.3697680116663739e-07  1.4282647917269641e-07  8.4129897785069810e-08  4.8467924291459256e-08  2.7329760906844296e-08  1.5092984408306074e-08  8.1632166564313578e-09  4.2950516661083718e-09  2.0325192136492966e-09  0.0000000000000000e+00  6.0000000000000002e-05  5.7730100679286710e-05  5.6635445017140748e-05  5.5964080582863111e-05  5.5243870821891823e-05  5.4282396330639395e-05  5.2993375282863486e-05  5.1348833226588336e-05  4.9368527963175395e-05  4.7115261748139139e-05  4.4686042500742806e-05  4.2197665337146572e-05  3.9769183267278298e-05  3.7505072572502547e-05  3.5482424384256500e-05  3.3743842676375712e-05  3.2295083610322165e-05  3.1098083309627046e-05  2.9977565379886345e-05  2.8323599319808516e-05  2.5791313818172390e-05  2.3149295333689495e-05  2.0735234710026944e-05  1.8566711749195841e-05  1.6560759015503488e-05  1.4644200833608515e-05  1.2778886787648186e-05  1.0962182648135297e-05  9.2227031860745026e-06  7.6266692431431533e-06  6.3333971399710421e-06  5.8108190486199087e-06  6.1209612392374259e-06  5.1959803812342696e-06  4.0013561682512356e-06  2.9279840850959209e-06  2.0667332309028966e-06  1.4152775926993238e-06  9.4265176293370604e-07  6.1154513656066300e-07  3.8681779494005576e-07  2.3875424021694406e-07  1.4391407829246136e-07  8.4779941512016732e-08  4.8847687418250190e-08  2.7546778533362443e-08  1.5214384069679127e-08  8.2297544912495055e-09  4.3308148317257387e-09  2.0508081161573099e-09  0.0000000000000000e+00  6.0000000000000002e-05  5.7926276719488788e-05  5.6891726705038818e-05  5.6237935194863529e-05  5.5521753296164364e-05  5.4559090410909591e-05  5.3266045050425644e-05  5.1615250595408133e-05  4.9626651178360910e-05  4.7363264812324704e-05  4.4922477504597225e-05  4.2421623260785673e-05  3.9980388110885349e-05  3.770388314205929