<?xml version="1.0"?>
<VTKFile type="UnstructuredGrid"  version="0.1"  >
<UnstructuredGrid>
<Piece  NumberOfPoints="2601" NumberOfCells="5000">
<Points>
<DataArray  type="Float64"  NumberOfComponents="3"  format="ascii">-1 0 0  -0.96 0 0  -0.92 0 0  -0.88 0 0  -0.84 0 0  -0.8 0 0  -0.76 0 0  -0.72 0 0  -0.6799999999999999 0 0  -0.64 0 0  -0.6 0 0  -0.5600000000000001 0 0  -0.52 0 0  -0.48 0 0  -0.4399999999999999 0 0  -0.4 0 0  -0.36 0 0  -0.32 0 0  -0.28 0 0  -0.24 0 0  -0.2 0 0  -0.16 0 0  -0.12 0 0  -0.07999999999999996 0 0  -0.04000000000000004 0 0  0 0 0  0.04000000000000004 0 0  0.08000000000000007 0 0  0.1200000000000001 0 0  0.1599999999999999 0 0  0.2 0 0  0.24 0 0  0.28 0 0  0.3200000000000001 0 0  0.3600000000000001 0 0  0.3999999999999999 0 0  0.4399999999999999 0 0  0.48 0 0  0.52 0 0  0.5600000000000001 0 0  0.6000000000000001 0 0  0.6399999999999999 0 0  0.6799999999999999 0 0  0.72 0 0  0.76 0 0  0.8 0 0  0.8400000000000001 0 0  0.8799999999999999 0 0  0.9199999999999999 0 0  0.96 0 0  1 0 0  -1 0.016 0  -0.96 0.016 0  -0.92 0.016 0  -0.88 0.016 0  -0.84 0.016 0  -0.8 0.016 0  -0.76 0.016 0  -0.72 0.016 0  -0.6799999999999999 0.016 0  -0.64 0.016 0  -0.6 0.016 0  -0.5600000000000001 0.016 0  -0.52 0.016 0  -0.48 0.016 0  -0.4399999999999999 0.016 0  -0.4 0.016 0  -0.36 0.016 0  -0.32 0.016 0  -0.28 0.016 0  -0.24 0.016 0  -0.2 0.016 0  -0.16 0.016 0  -0.12 0.016 0  -0.07999999999999996 0.016 0  -0.04000000000000004 0.016 0  0 0.016 0  0.04000000000000004 0.016 0  0.08000000000000007 0.016 0  0.1200000000000001 0.016 0  0.1599999999999999 0.016 0  0.2 0.016 0  0.24 0.016 0  0.28 0.016 0  0.3200000000000001 0.016 0  0.3600000000000001 0.016 0  0.3999999999999999 0.016 0  0.4399999999999999 0.016 0  0.48 0.016 0  0.52 0.016 0  0.5600000000000001 0.016 0  0.6000000000000001 0.016 0  0.6399999999999999 0.016 0  0.6799999999999999 0.016 0  0.72 0.016 0  0.76 0.016 0  0.8 0.016 0  0.8400000000000001 0.016 0  0.8799999999999999 0.016 0  0.9199999999999999 0.016 0  0.96 0.016 0  1 0.016 0  -1 0.032 0  -0.96 0.032 0  -0.92 0.032 0  -0.88 0.032 0  -0.84 0.032 0  -0.8 0.032 0  -0.76 0.032 0  -0.72 0.032 0  -0.6799999999999999 0.032 0  -0.64 0.032 0  -0.6 0.032 0  -0.5600000000000001 0.032 0  -0.52 0.032 0  -0.48 0.032 0  -0.4399999999999999 0.032 0  -0.4 0.032 0  -0.36 0.032 0  -0.32 0.032 0  -0.28 0.032 0  -0.24 0.032 0  -0.2 0.032 0  -0.16 0.032 0  -0.12 0.032 0  -0.07999999999999996 0.032 0  -0.04000000000000004 0.032 0  0 0.032 0  0.04000000000000004 0.032 0  0.08000000000000007 0.032 0  0.1200000000000001 0.032 0  0.1599999999999999 0.032 0  0.2 0.032 0  0.24 0.032 0  0.28 0.032 0  0.3200000000000001 0.032 0  0.3600000000000001 0.032 0  0.3999999999999999 0.032 0  0.4399999999999999 0.032 0  0.48 0.032 0  0.52 0.032 0  0.5600000000000001 0.032 0  0.6000000000000001 0.032 0  0.6399999999999999 0.032 0  0.6799999999999999 0.032 0  0.72 0.032 0  0.76 0.032 0  0.8 0.032 0  0.8400000000000001 0.032 0  0.8799999999999999 0.032 0  0.9199999999999999 0.032 0  0.96 0.032 0  1 0.032 0  -1 0.04800000000000001 0  -0.96 0.04800000000000001 0  -0.92 0.04800000000000001 0  -0.88 0.04800000000000001 0  -0.84 0.04800000000000001 0  -0.8 0.04800000000000001 0  -0.76 0.04800000000000001 0  -0.72 0.04800000000000001 0  -0.6799999999999999 0.04800000000000001 0  -0.64 0.04800000000000001 0  -0.6 0.04800000000000001 0  -0.5600000000000001 0.04800000000000001 0  -0.52 0.04800000000000001 0  -0.48 0.04800000000000001 0  -0.4399999999999999 0.04800000000000001 0  -0.4 0.04800000000000001 0  -0.36 0.04800000000000001 0  -0.32 0.04800000000000001 0  -0.28 0.04800000000000001 0  -0.24 0.04800000000000001 0  -0.2 0.04800000000000001 0  -0.16 0.04800000000000001 0  -0.12 0.04800000000000001 0  -0.07999999999999996 0.04800000000000001 0  -0.04000000000000004 0.04800000000000001 0  0 0.04800000000000001 0  0.04000000000000004 0.04800000000000001 0  0.08000000000000007 0.04800000000000001 0  0.1200000000000001 0.04800000000000001 0  0.1599999999999999 0.04800000000000001 0  0.2 0.04800000000000001 0  0.24 0.04800000000000001 0  0.28 0.04800000000000001 0  0.3200000000000001 0.04800000000000001 0  0.3600000000000001 0.04800000000000001 0  0.3999999999999999 0.04800000000000001 0  0.4399999999999999 0.04800000000000001 0  0.48 0.04800000000000001 0  0.52 0.04800000000000001 0  0.5600000000000001 0.04800000000000001 0  0.6000000000000001 0.04800000000000001 0  0.6399999999999999 0.04800000000000001 0  0.6799999999999999 0.04800000000000001 0  0.72 0.04800000000000001 0  0.76 0.04800000000000001 0  0.8 0.04800000000000001 0  0.8400000000000001 0.04800000000000001 0  0.8799999999999999 0.04800000000000001 0  0.9199999999999999 0.04800000000000001 0  0.96 0.04800000000000001 0  1 0.04800000000000001 0  -1 0.064 0  -0.96 0.064 0  -0.92 0.064 0  -0.88 0.064 0  -0.84 0.064 0  -0.8 0.064 0  -0.76 0.064 0  -0.72 0.064 0  -0.6799999999999999 0.064 0  -0.64 0.064 0  -0.6 0.064 0  -0.5600000000000001 0.064 0  -0.52 0.064 0  -0.48 0.064 0  -0.4399999999999999 0.064 0  -0.4 0.064 0  -0.36 0.064 0  -0.32 0.064 0  -0.28 0.064 0  -0.24 0.064 0  -0.2 0.064 0  -0.16 0.064 0  -0.12 0.064 0  -0.07999999999999996 0.064 0  -0.04000000000000004 0.064 0  0 0.064 0  0.04000000000000004 0.064 0  0.08000000000000007 0.064 0  0.1200000000000001 0.064 0  0.1599999999999999 0.064 0  0.2 0.064 0  0.24 0.064 0  0.28 0.064 0  0.3200000000000001 0.064 0  0.3600000000000001 0.064 0  0.3999999999999999 0.064 0  0.4399999999999999 0.064 0  0.48 0.064 0  0.52 0.064 0  0.5600000000000001 0.064 0  0.6000000000000001 0.064 0  0.6399999999999999 0.064 0  0.6799999999999999 0.064 0  0.72 0.064 0  0.76 0.064 0  0.8 0.064 0  0.8400000000000001 0.064 0  0.8799999999999999 0.064 0  0.9199999999999999 0.064 0  0.96 0.064 0  1 0.064 0  -1 0.08 0  -0.96 0.08 0  -0.92 0.08 0  -0.88 0.08 0  -0.84 0.08 0  -0.8 0.08 0  -0.76 0.08 0  -0.72 0.08 0  -0.6799999999999999 0.08 0  -0.64 0.08 0  -0.6 0.08 0  -0.5600000000000001 0.08 0  -0.52 0.08 0  -0.48 0.08 0  -0.4399999999999999 0.08 0  -0.4 0.08 0  -0.36 0.08 0  -0.32 0.08 0  -0.28 0.08 0  -0.24 0.08 0  -0.2 0.08 0  -0.16 0.08 0  -0.12 0.08 0  -0.07999999999999996 0.08 0  -0.04000000000000004 0.08 0  0 0.08 0  0.04000000000000004 0.08 0  0.08000000000000007 0.08 0  0.1200000000000001 0.08 0  0.1599999999999999 0.08 0  0.2 0.08 0  0.24 0.08 0  0.28 0.08 0  0.3200000000000001 0.08 0  0.3600000000000001 0.08 0  0.3999999999999999 0.08 0  0.4399999999999999 0.08 0  0.48 0.08 0  0.52 0.08 0  0.5600000000000001 0.08 0  0.6000000000000001 0.08 0  0.6399999999999999 0.08 0  0.6799999999999999 0.08 0  0.72 0.08 0  0.76 0.08 0  0.8 0.08 0  0.8400000000000001 0.08 0  0.8799999999999999 0.08 0  0.9199999999999999 0.08 0  0.96 0.08 0  1 0.08 0  -1 0.09600000000000002 0  -0.96 0.09600000000000002 0  -0.92 0.09600000000000002 0  -0.88 0.09600000000000002 0  -0.84 0.09600000000000002 0  -0.8 0.09600000000000002 0  -0.76 0.09600000000000002 0  -0.72 0.09600000000000002 0  -0.6799999999999999 0.09600000000000002 0  -0.64 0.09600000000000002 0  -0.6 0.09600000000000002 0  -0.5600000000000001 0.09600000000000002 0  -0.52 0.09600000000000002 0  -0.48 0.09600000000000002 0  -0.4399999999999999 0.09600000000000002 0  -0.4 0.09600000000000002 0  -0.36 0.09600000000000002 0  -0.32 0.09600000000000002 0  -0.28 0.09600000000000002 0  -0.24 0.09600000000000002 0  -0.2 0.09600000000000002 0  -0.16 0.09600000000000002 0  -0.12 0.09600000000000002 0  -0.07999999999999996 0.09600000000000002 0  -0.04000000000000004 0.09600000000000002 0  0 0.09600000000000002 0  0.04000000000000004 0.09600000000000002 0  0.08000000000000007 0.09600000000000002 0  0.1200000000000001 0.09600000000000002 0  0.1599999999999999 0.09600000000000002 0  0.2 0.09600000000000002 0  0.24 0.09600000000000002 0  0.28 0.09600000000000002 0  0.3200000000000001 0.09600000000000002 0  0.3600000000000001 0.09600000000000002 0  0.3999999999999999 0.09600000000000002 0  0.4399999999999999 0.09600000000000002 0  0.48 0.09600000000000002 0  0.52 0.09600000000000002 0  0.5600000000000001 0.09600000000000002 0  0.6000000000000001 0.09600000000000002 0  0.6399999999999999 0.09600000000000002 0  0.6799999999999999 0.09600000000000002 0  0.72 0.09600000000000002 0  0.76 0.09600000000000002 0  0.8 0.09600000000000002 0  0.8400000000000001 0.09600000000000002 0  0.8799999999999999 0.09600000000000002 0  0.9199999999999999 0.09600000000000002 0  0.96 0.09600000000000002 0  1 0.09600000000000002 0  -1 0.112 0  -0.96 0.112 0  -0.92 0.112 0  -0.88 0.112 0  -0.84 0.112 0  -0.8 0.112 0  -0.76 0.112 0  -0.72 0.112 0  -0.6799999999999999 0.112 0  -0.64 0.112 0  -0.6 0.112 0  -0.5600000000000001 0.112 0  -0.52 0.112 0  -0.48 0.112 0  -0.4399999999999999 0.112 0  -0.4 0.112 0  -0.36 0.112 0  -0.32 0.112 0  -0.28 0.112 0  -0.24 0.112 0  -0.2 0.112 0  -0.16 0.112 0  -0.12 0.112 0  -0.07999999999999996 0.112 0  -0.04000000000000004 0.112 0  0 0.112 0  0.04000000000000004 0.112 0  0.08000000000000007 0.112 0  0.1200000000000001 0.112 0  0.1599999999999999 0.112 0  0.2 0.112 0  0.24 0.112 0  0.28 0.112 0  0.3200000000000001 0.112 0  0.3600000000000001 0.112 0  0.3999999999999999 0.112 0  0.4399999999999999 0.112 0  0.48 0.112 0  0.52 0.112 0  0.5600000000000001 0.112 0  0.6000000000000001 0.112 0  0.6399999999999999 0.112 0  0.6799999999999999 0.112 0  0.72 0.112 0  0.76 0.112 0  0.8 0.112 0  0.8400000000000001 0.112 0  0.8799999999999999 0.112 0  0.9199999999999999 0.112 0  0.96 0.112 0  1 0.112 0  -1 0.128 0  -0.96 0.128 0  -0.92 0.128 0  -0.88 0.128 0  -0.84 0.128 0  -0.8 0.128 0  -0.76 0.128 0  -0.72 0.128 0  -0.6799999999999999 0.128 0  -0.64 0.128 0  -0.6 0.128 0  -0.5600000000000001 0.128 0  -0.52 0.128 0  -0.48 0.128 0  -0.4399999999999999 0.128 0  -0.4 0.128 0  -0.36 0.128 0  -0.32 0.128 0  -0.28 0.128 0  -0.24 0.128 0  -0.2 0.128 0  -0.16 0.128 0  -0.12 0.128 0  -0.07999999999999996 0.128 0  -0.04000000000000004 0.128 0  0 0.128 0  0.04000000000000004 0.128 0  0.08000000000000007 0.128 0  0.1200000000000001 0.128 0  0.1599
[...]
<PointData  Scalars="f_100"> 
<DataArray  type="Float64"  Name="f_100"  format="ascii">6.0000000000000002e-05  5.4094694861273163e-05  5.2474015178679683e-05  5.1447270032040481e-05  5.0344526743115276e-05  4.8931812852728164e-05  4.7143907198214648e-05  4.5008567610287860e-05  4.2617124158014790e-05  4.0100913035524640e-05  3.7605259056649155e-05  3.5263868311843066e-05  3.3178900273536986e-05  3.1410215374926172e-05  2.9974048194049938e-05  2.8848408172857637e-05  2.7979674193244727e-05  2.7271670193183705e-05  2.6474681456989319e-05  2.1764291937530482e-05  1.6020397855724852e-05  1.3280887308349681e-05  1.1248860428760044e-05  9.5495809822734034e-06  8.0416870802791729e-06  6.6688977890020466e-06  5.4176238984727686e-06  4.2961572089528259e-06  3.3239024395358980e-06  2.5364758771212729e-06  2.0394777493600070e-06  2.3099413755632138e-06  2.8653231246015263e-06  2.3921935836014326e-06  1.7388325818829551e-06  1.1779222643699625e-06  7.6273020887225951e-07  4.7687139638821345e-07  2.8919442921482866e-07  1.7053049704540844e-07  9.7934272219121444e-08  5.4843954760181441e-08  2.9981478223128948e-08  1.6015403961957677e-08  8.3673651681829200e-09  4.2794711147721018e-09  2.1443337863120189e-09  1.0529864089057828e-09  5.0395613520752859e-10  2.1766405913265656e-10  0.0000000000000000e+00  6.0000000000000002e-05  5.4369140375379568e-05  5.2741040265733505e-05  5.1709680388596547e-05  5.0602982466866990e-05  4.9185143548970736e-05  4.7390201519602646e-05  4.5245725856923732e-05  4.2843259895114472e-05  4.0314669544154664e-05  3.7806012376237117e-05  3.5451787074408879e-05  3.3354864754342074e-05  3.1575632162512775e-05  3.0130615370241750e-05  2.8997885081269865e-05  2.8123701609509363e-05  2.7411807377582141e-05  2.6599342205806932e-05  2.2327744898281873e-05  1.6816690512843034e-05  1.3948490905858020e-05  1.1814682512601925e-05  1.0033667228969838e-05  8.4549102679589254e-06  7.0177698442080663e-06  5.7069955700859158e-06  4.5307451934902445e-06  3.5089687754606865e-06  2.6776930684141949e-06  2.1417022491230800e-06  2.3399116109675545e-06  2.8817380184740102e-06  2.4081802317498084e-06  1.7508971853064846e-06  1.1862995496405146e-06  7.6826700196624400e-07  4.8039726630992790e-07  2.9136917852755724e-07  1.7183328084204423e-07  9.8693571019012279e-08  5.5275086181554496e-08  3.0220238584058703e-08  1.6144504260343581e-08  8.4355887713550975e-09  4.3147401662211623e-09  2.1621863593949541e-09  1.0618436739771114e-09  5.0827491325000100e-10  2.1978289201659408e-10  0.0000000000000000e+00  6.0000000000000002e-05  5.4639528773806252e-05  5.3007236748385140e-05  5.1972723456883657e-05  5.0862522507542769e-05  4.9439687359022834e-05  4.7637729981431264e-05  4.5484098868259276e-05  4.3070572047166526e-05  4.0529552839494755e-05  3.8007835685255321e-05  3.5640715365942337e-05  3.3531778120456240e-05  3.1741940259882764e-05  3.0288022119579316e-05  2.9148158862635963e-05  2.8268506024789143e-05  2.7552836082295441e-05  2.6728445824149932e-05  2.2843454188659601e-05  1.7606192591017336e-05  1.4614303571748959e-05  1.2384887454438777e-05  1.0525020648774831e-05  8.8766653436986076e-06  7.3754926630262082e-06  6.0049083381350249e-06  4.7731356170470629e-06  3.7008178786808002e-06  2.8244751728374064e-06  2.2476693446237181e-06  2.3789291761673315e-06  2.9015233498493203e-06  2.4253110097678912e-06  1.7633532717978550e-06  1.1948295856458322e-06  7.7387514584311834e-07  4.8396174337469664e-07  2.9356652069110326e-07  1.7314961737337945e-07  9.9460967263378217e-08  5.5710974967903814e-08  3.0461733551425221e-08  1.6275140021742095e-08  8.5046544344898215e-09  4.3504604672949930e-09  2.1802754155099082e-09  1.0708222692176509e-09  5.1265438225232890e-10  2.2192309634460194e-10  0.0000000000000000e+00  6.0000000000000002e-05  5.4905063162541736e-05  5.3272564917356194e-05  5.2236394110560667e-05  5.1123151686051488e-05  4.9695452551730178e-05  4.7886501956713183e-05  4.5723696003393722e-05  4.3299069246823661e-05  4.0745570351531998e-05  3.8210734972093441e-05  3.5830657735762577e-05  3.3709643686770964e-05  3.1909142077682947e-05  3.0446270313863279e-05  2.9299231142322244e-05  2.8414088695431065e-05  2.7694747890421301e-05  2.6861713083237497e-05  2.3317870038548395e-05  1.8369243725581583e-05  1.5274803960384187e-05  1.2957956826371593e-05  1.1022869425785374e-05  9.3065924715015099e-06  7.7419514442726169e-06  6.3113902683214305e-06  5.0234323109285825e-06  3.8995882506812960e-06  2.9769857622990906e-06  2.3577610388747276e-06  2.4259776560128279e-06  2.9247335442500033e-06  2.4436043570765203e-06  1.7762061157299981e-06  1.2035129542363489e-06  7.7955403843612048e-07  4.8756407859205128e-07  2.9578583137897212e-07  1.7447904970643228e-07  1.0023614914388793e-07  5.6151418599246421e-08  3.0705836793808558e-08  1.6407235188475519e-08  8.5745178218446464e-09  4.3866069338455790e-09  2.1985871492431511e-09  1.0799147715090134e-09  5.1709054850727099e-10  2.2408204131398075e-10  0.0000000000000000e+00  6.0000000000000002e-05  5.5165184729471355e-05  5.3537001142197386e-05  5.2500691065897733e-05  5.1384875720094477e-05  4.9952447307655860e-05  4.8136526404161053e-05  4.5964526148162435e-05  4.3528759734520982e-05  4.0962729280858920e-05  3.8414716195208318e-05  3.6021618898219924e-05  3.3888465091041734e-05  3.2077240451094865e-05  3.0605362290645491e-05  2.9451104000414407e-05  2.8560451287588443e-05  2.7837537345250094e-05  2.6998862410401675e-05  2.3756732924391321e-05  1.9096369742688911e-05  1.5927455310208466e-05  1.3532573868489699e-05  1.1526529703504536e-05  9.7443824374600473e-06  8.1170671094105177e-06  6.6264997851715025e-06  5.2817681094501076e-06  4.1054457162989094e-06  3.1354067269350750e-06  2.4723092649842131e-06  2.4803201873146624e-06  2.9514120959485339e-06  2.4630742265365827e-06  1.7894595012521032e-06  1.2123500127708961e-06  7.8530318462378315e-07  4.9120367911716219e-07  2.9802661856990287e-07  1.7582121744832196e-07  1.0101887027981951e-07  5.6596256756387691e-08  3.0952448145215999e-08  1.6540729376665892e-08  8.6451436970566401e-09  4.4231596130708679e-09  2.2171105718549098e-09  1.0891152690730654e-09  5.2158023219395871e-10  2.2625776409897627e-10  0.0000000000000000e+00  6.0000000000000002e-05  5.5419529379348408e-05  5.3800535785465297e-05  5.2765616706147718e-05  5.1647701229975008e-05  5.0210679790555880e-05  4.8387811963340669e-05  4.6206597810390584e-05  4.3759651436480631e-05  4.1181036647102912e-05  3.8619785295887804e-05  3.6213603710436562e-05  3.4068246242933629e-05  3.2246238569963219e-05  3.0765300775003137e-05  2.9603779893334823e-05  2.8707595792404790e-05  2.7981201102689906e-05  2.7139617327309858e-05  2.4165075975300426e-05  1.9784016096922459e-05  1.6570223620266583e-05  1.4107565032739183e-05  1.2035385089344684e-05  1.0189767319675245e-05  8.5007917529831119e-06  6.9503226336568355e-06  5.5483016166134888e-06  4.3185798923720210e-06  3.2999372096923454e-06  2.5916110615363477e-06  2.5414262201671956e-06  2.9815913522690756e-06  2.4837301820486799e-06  1.8031157708606098e-06  1.2213408733471639e-06  7.9112216018102519e-07  4.9488007555034531e-07  3.0028849742421580e-07  1.7717583893226507e-07  1.0180893774313319e-07  5.7045363605700428e-08  3.1201488814633857e-08  1.6675574999911882e-08  8.7165042489131239e-09  4.4601027368546314e-09  2.2358369902816712e-09  1.0984190812623441e-09  5.2612091673012299e-10  2.2844884218671525e-10  0.0000000000000000e+00  6.0000000000000002e-05  5.5667891747475769e-05  5.4063171738213596e-05  5.3031176939631859e-05  5.1911635743201767e-05  5.0470158206237725e-05  4.8640367033022798e-05  4.6449919198244926e-05  4.3991752028758025e-05  4.1400499328539647e-05  3.8825948208466472e-05  3.6406617153712009e-05  3.4248991281875671e-05  3.2416139921177559e-05  3.0926088815153415e-05  2.9757261589478682e-05  2.8855524458097336e-05  2.8125737252928018e-05  2.7283711668550350e-05  2.4547270915496424e-05  2.0431992927850904e-05  1.7201439785984594e-05  1.4681885943963804e-05  1.2548881625016764e-05  1.0642519064809940e-05  8.8931086608017185e-06  7.2829720210646629e-06  5.8232167747007991e-06  4.5392032824493098e-06  3.4707937819567788e-06  2.7159407431603753e-06  2.6089188017663806e-06  3.0152927800084248e-06  2.5055774713921554e-06  1.8171758655315049e-06  1.2304853856307665e-06  7.9701058217693037e-07  4.9859289513178015e-07  3.0257116971138226e-07  1.7854269664308009e-07  1.0260620226867267e-07  5.7498641496224782e-08  3.1452897475143973e-08  1.6811734922599317e-08  8.7885777262559430e-09  4.4974239503612446e-09  2.2547595828351739e-09  1.1078225304810214e-09  5.3071062621851864e-10  2.3065428917323231e-10  0.0000000000000000e+00  6.0000000000000002e-05  5.5910195386520506e-05  5.4324923394404597e-05  5.3297381080717148e-05  5.2176687697118689e-05  5.0730890850718189e-05  4.8894199835607517e-05  4.6694498284658350e-05  4.4225068989823739e-05  4.1621124094497014e-05  3.9033210868499518e-05  3.6600664317997444e-05  3.4430704542205644e-05  3.2586948241161769e-05  3.1087729729464025e-05  2.9911552116375333e-05  2.9004239735574415e-05  2.8271144784275888e-05  2.7430893056904235e-05  2.4907093662652287e-05  2.1041952409943775e-05  1.7819784240854118e-05  1.5254623836855837e-05  1.3066530377774500e-05  1.1102452232744003e-05  9.2940348258767789e-06  7.6245905583099282e-06  6.1067240503678953e-06  4.7675518895453124e-06  3.6482113744102359e-06  2.8455596443859311e-06  2.6825365550968077e-06  3.0525274834103174e-06  2.5286170797552116e-06  1.8316393588990653e-06  1.2397831230282791e-06  8.0296808477362307e-07  5.0234183979817152e-07  3.0487440697223987e-07  1.7992162529511168e-07  1.0341055025123579e-07  5.7956015810637934e-08  3.1706627071106375e-08  1.6949180545305352e-08  8.8613473249278643e-09  4.5351136834328061e-09  2.2738730536468369e-09  1.1173227565351260e-09  5.3534782573535751e-10  2.3287346981757255e-10  0.0000000000000000e+00  6.0000000000000002e-05  5.6146468116207704e-05  5.4585815927221681e-05  5.3564241745662623e-05  5.2442866439002343e-05  5.0992886149280862e-05  4.9149318469994198e-05  4.6940342860275986e-05  4.4459609643729307e-05  4.1842917631863260e-05  3.9241579219301617e-05  3.6795750388938672e-05  3.4613390524347922e-05  3.2758667476701000e-05  3.1250227062845964e-05  3.0066654717325405e-05  2.9153744234908093e-05  2.8417423165556760e-05  2.7580925030384699e-05  2.5247795970962252e-05  2.1616488378365090e-05  1.8424298963890108e-05  1.5825005582872640e-05  1.3587913748704394e-05  1.1569428949536063e-05  9.7036248645533871e-06  7.9753532555860336e-06  6.3990625861738619e-06  5.0038867337791624e-06  3.8324446980480285e-06  2.9807239607836133e-06  2.7621062093617794e-06  3.0932968208588859e-06  2.5528457690877491e-06  1.8465044875063647e-06  1.2492333719681712e-06  8.0899429955952580e-07  5.0612666825198000e-07  3.0719803674646162e-07  1.8131250208199056e-07  1.0422189720381675e-07  5.8417430758898962e-08  3.1962642211532706e-08  1.7087890242700600e-08  8.9348002802019659e-09  4.5731646383388786e-09  2.2931733512353819e-09  1.1269175655141923e-09  5.4003134018994219e-10  2.3510603090132275e-10  0.0000000000000000e+00  6.0000000000000002e-05  5.6376821689425137e-05  5.4845884765477538e-05  5.3831774757377373e-05  5.2710182223229001e-05  5.1256152687770954e-05  4.9405730954857350e-05  4.7187460576938880e-05  4.4695381195539047e-05  4.2065886566774487e-05  3.9451059217177418e-05  3.6991880637068441e-05  3.4797053870983303e-05  3.2931301752645061e-05  3.1413584550870320e-05  3.0222572815829406e-05  2.9304040690531747e-05  2.8564572026550676e-05  2.7733588142663647e-05  2.5572175691283687e-05  2.2158610638848097e-05  1.9014391855984823e-05  1.6392406975187760e-05  1.4112693465268754e-05  1.2043365025788211e-05  1.0121975745102816e-05  8.3354711673212256e-06  6.7005029571544921e-06  5.2484959353259052e-06  4.0237700075656787e-06  3.1216911297789209e-06  2.8475227290158666e-06  3.1375930209734191e-06  2.5782561078877283e-06  1.8617681787766065e-06  1.2588351240724250e-06  8.1508883969832615e-07  5.0994718134489300e-07  3.0954193131648827e-07  1.8271523870479644e-07  1.0504018241065168e-07  5.8882845941982501e-08  3.2220917041959528e-08  1.7227848088993482e-08  9.0089271267227179e-09  4.6115713723207848e-09  2.3126574392866249e-09  1.1366053067744421e-09  5.4476028828258263e-10  2.3735184505656304e-10  0.0000000000000000e+00  6.0000000000000002e-05  5.6601435065605716e-05  5.5105175195479735e-05  5.4099999054657536e-05  5.2978646205236172e-05  5.1520699237246082e-05  4.9663445263947649e-05  4.7435858983364807e-05  4.4932390760409303e-05  4.2290037482360535e-05  3.9661656835606296e-05  3.7189060408796257e-05  3.4981699347348474e-05  3.3104855345282314e-05  3.1577806090242969e-05  3.0379309986422793e-05  2.9455131933469556e-05  2.8712590918892593e-05  2.7888680294741941e-05  2.5882641898283381e-05  2.2671444404901564e-05  1.9589825206910957e-05  1.6956361388841827e-05  1.4640619160462052e-05  1.2524236674909987e-05  1.0549232008951652e-05  8.7051954636975522e-06  7.0113503320965187e-06  5.5016971743851454e-06  4.2224871224972239e-06  3.2687251100557009e-06  2.9387349311562099e-06  3.1853997353612689e-06  2.6048364954504906e-06  1.8774260780464548e-06  1.2685870710198407e-06  8.2125128729739770e-07  5.1380321020127065e-07  3.1190599851795560e-07  1.8412977485651492e-07  1.0586536455720022e-07  5.9352233544653977e-08  3.2481433506873774e-08  1.7369042817905067e-08  9.0837210949888316e-09  4.6503299573581409e-09  2.3323231099421677e-09  1.1463847727883713e-09  5.4953402873651080e-10  2.3961096523100334e-10  0.0000000000000000e+00  6.0000000000000002e-05  5.6820540697405233e-05  5.5363742034528981e-05  5.4368936602599600e-05  5.3248270432099365e-05  5.1786534772920494e-05  4.9922469354756559e-05  4.7685545554393519e-05  4.5170645387450069e-05  4.2515376933268820e-05  3.9873378068591485e-05  3.7387295118900651e-05  3.5167331824951147e-05  3.3279332660388884e-05  3.1742895714511888e-05  3.0536869930778835e-05  2.9607020869252571e-05  2.8861479142418179e-05  2.8046016501864161e-05  2.6181273280811838e-05  2.3158064519557880e-05  2.0150690431441662e-05  1.7516566903098446e-05  1.5171536934014351e-05  1.3012087516892789e-05  1.0985591306069933e-05  9.0848218039284288e-06  7.3319479271029644e-06  5.7638404234933293e-06  4.4289216562757633e-06  3.4221008438500916e-06  3.0357350795793200e-06  3.2366924900364096e-06  2.6325711840500724e-06  1.8934725757500018e-06  1.2784876019190680e-06  8.2748118350056021e-07  5.1769460660913544e-07  3.1429017424758915e-07  1.8555607289902716e-07  1.0669741815884405e-07  5.9825576042001207e-08  3.2744179930857531e-08  1.7511466973905023e-08  9.1591776191158129e-09  4.6894377028325216e-09  2.3521688316914935e-09  1.1562551175978775e-09  5.5435211650672072e-10  2.4188358787455948e-10  0.0000000000000000e+00  6.0000000000000002e-05  5.7034413333232810e-05  5.5621649338042857e-05  5.4638612301728018e-05  5.3519067829619532e-05  5.2053668488188698e-05  5.0182811191651884e-05  4.7936527714922179e-05  4.5410152079301200e-05  4.2741911457554643e-05  4.0086228933342825e-05  3.7586590244276851e-05  3.5353956268109130e-05  3.3454738215131279e-05  3.1908857574079634e-05  3.0695256458142364e-05  2.9759710460451311e-05  2.9011235624270255e-05  2.8205428255073641e-05  2.6469869407858250e-05  2.3621409909652611e-05  2.0697374239805420e-05  1.8072891453199323e-05  1.5705397564338275e-05  1.3507035687304228e-05  1.1431310141115246e-05  9.4746949392747534e-06  7.6626806873992264e-06  6.0353108936993638e-06  4.6434274231596813e-06  3.5821081240725473e-06  3.1385513698732579e-06  3.2914390140406464e-06  2.6614403020256925e-06  1.9099008356341501e-06  1.2885348030248614e-06  8.3377802089352686e-07  5.2162123528985898e-07  3.1669441636583294e-07  1.8699411351660058e-07  1.0753633064248709e-07  6.0302864325475709e-08  3.3009149859771051e-08  1.7655116219385188e-08  9.2352939352682110e-09  4.7288929294083622e-09  2.3721936254255073e-09  1.1662157903991992e-09  5.5921426709711053e-10  2.4417002327290572e-10  0.0000000000000000e+00  6.0000000000000002e-05  5.7243360919114914e-05  5.5878970114204594e-05  5.4909053894007488e-05  5.3791052185875847e-05  5.2322109804390567e-05  5.0444478764400337e-05  4.8188812859459450e-05  4.5650917808189799e-05  4.2969647586419752e-05  4.0300215472428125e-05  3.7786951318732428e-05  3.5541577722823442e-05  3.3631076623143943e-05  3.2075695919756806e-05  3.0854473469323460e-05  2.9913203712973044e-05  2.9161858840128749e-05  2.8366762600404594e-05  2.6749995138706913e-05  2.4064245367791276e-05  2.1230521287299149e-05  1.8625375895652470e-05  1.6242264198753069e-05  1.4009280944798041e-05  1.1886709767355094e-05  9.8752135023719059e-06  8.0039791599451527e-06  6.3165321616114406e-06  4.8663890046752835e-06  3.7490550380985658e-06  3.2472425239093180e-06  3.3495994346490343e-06  2.6914198803341260e-06  1.9267028247140947e-06  1.2987264596447910e-06  8.4014123787917699e-07  5.2558296772623688e-07  3.1911869974574311e-07  1.8844389216888179e-07  1.0838209996171618e-07  6.0784096171373957e-08  3.3276341114023313e-08  1.7799988768926021e-08  9.3120687539425832e-09  4.7686947846054416e-09  2.3923969634007660e-09  1.1762664814315171e-09  5.6412032746538350e-10  2.4647067173377756e-10  0.0000000000000000e+00  6.0000000000000002e-05  5.7447717251190049e-05  5.6135786028893629e-05  5.5180291864390664e-05  5.4064238131246129e-05  5.2591868376876088e-05  5.0707480102836915e-05  4.8442408368063813e-05  4.5892949529098863e-05  4.3198591852193775e-05  4.0515343755501719e-05  3.7988383928656888e-05  3.5730201307578922e-05  3.3808352582220905e-05  3.2243415089226096e-05  3.1014524943616074e-05  3.0067503665443525e-05  2.9313346768721612e-05  2.8529881029358075e-05  2.7023018769872980e-05  2.4489150857366630e-05  2.1750997185603124e-05  1.9174235109772189e-05  1.6782319446774784e-05  1.4519111712788286e-05  1.2352182187734943e-05  1.0286834955074186e-05  8.3563235340791281e-06  6.6079694583606870e-06  5.0982244644954300e-06  3.9232711208706953e-06  3.3618939294989222e-06  3.4111263354862466e-06  2.7224818848037200e-06  1.9438693455339537e-06  1.3090600600954893e-06  8.4657021473639236e-07  5.2957967728481912e-07  3.2156301226408338e-07  1.8990541619829584e-07  1.0923473264780468e-07  6.1269274988708597e-08  3.3545755014730961e-08  1.7946084927091951e-08  9.3895019923700630e-09  4.8088430922908924e-09  2.4127786868329010e-09  1.1864070778644027e-09  5.6907025227785177e-10  2.4878600456181339e-10  0.0000000000000000e+00  6.0000000000000002e-05  5.7647836086942327e-05  5.6392187090152240e-05  5.5452359336922987e-05  5.4338641114935988e-05  5.2862954097843303e-05  5.0971823288311491e-05  4.8697321619298093e-05  4.6136254190566003e-05  4.3428750794881613e-05  4.0731619880697011e-05  3.8190893709419687e-05  3.5919832205735374e-05  3.3986570864158045e-05  3.2412019495896814e-05  3.1175414928118467e-05  3.0222613381128678e-05  2.9465696872333947e-05  2.8694658250880625e-05  2.7290144642285696e-05  2.4898526467352529e-05  2.2259854459329607e-05  1.9719857431445034e-05  1.7325871864491320e-05  1.5036912017154431e-05  1.2828196235399605e-05  1.0710080675727105e-05  8.7202478355098706e-06  6.9101331092367760e-06  5.3393882054170489e-06  4.1051103198829452e-06  3.4826149168174912e-06  3.4759646781829644e-06  2.7545942560830505e-06  1.9613900711765793e-06  1.3195328015775572e-06  8.5306427112267284e-07  5.3361123541436487e-07  3.2402735156686960e-07  1.9137870247281746e-07  1.1009424221649237e-07  6.1758408794853826e-08  3.3817395750700520e-08  1.8093406710493518e-08  9.4675945558216986e-09  4.8493382297458040e-09  2.4333389386259000e-09  1.1966376278046630e-09  5.7406408450573506e-10  2.5111654894637000e-10  0.0000000000000000e+00  6.0000000000000002e-05  5.7844086470848166e-05  5.6648271306123018e-05  5.5725291964718331e-05  5.4614277378089297e-05  5.3135377096353335e-05  5.1237516462437382e-05  4.8953560000722921e-05  4.6380838743539594e-05  4.3660130967542128e-05  4.0949049975752659e-05  3.8394486342373897e-05  3.6110475659229437e-05  3.416573630636229