<?xml version="1.0"?>
<VTKFile type="UnstructuredGrid"  version="0.1"  >
<UnstructuredGrid>
<Piece  NumberOfPoints="2601" NumberOfCells="5000">
<Points>
<DataArray  type="Float64"  NumberOfComponents="3"  format="ascii">-1 0 0  -0.96 0 0  -0.92 0 0  -0.88 0 0  -0.84 0 0  -0.8 0 0  -0.76 0 0  -0.72 0 0  -0.6799999999999999 0 0  -0.64 0 0  -0.6 0 0  -0.5600000000000001 0 0  -0.52 0 0  -0.48 0 0  -0.4399999999999999 0 0  -0.4 0 0  -0.36 0 0  -0.32 0 0  -0.28 0 0  -0.24 0 0  -0.2 0 0  -0.16 0 0  -0.12 0 0  -0.07999999999999996 0 0  -0.04000000000000004 0 0  0 0 0  0.04000000000000004 0 0  0.08000000000000007 0 0  0.1200000000000001 0 0  0.1599999999999999 0 0  0.2 0 0  0.24 0 0  0.28 0 0  0.3200000000000001 0 0  0.3600000000000001 0 0  0.3999999999999999 0 0  0.4399999999999999 0 0  0.48 0 0  0.52 0 0  0.5600000000000001 0 0  0.6000000000000001 0 0  0.6399999999999999 0 0  0.6799999999999999 0 0  0.72 0 0  0.76 0 0  0.8 0 0  0.8400000000000001 0 0  0.8799999999999999 0 0  0.9199999999999999 0 0  0.96 0 0  1 0 0  -1 0.016 0  -0.96 0.016 0  -0.92 0.016 0  -0.88 0.016 0  -0.84 0.016 0  -0.8 0.016 0  -0.76 0.016 0  -0.72 0.016 0  -0.6799999999999999 0.016 0  -0.64 0.016 0  -0.6 0.016 0  -0.5600000000000001 0.016 0  -0.52 0.016 0  -0.48 0.016 0  -0.4399999999999999 0.016 0  -0.4 0.016 0  -0.36 0.016 0  -0.32 0.016 0  -0.28 0.016 0  -0.24 0.016 0  -0.2 0.016 0  -0.16 0.016 0  -0.12 0.016 0  -0.07999999999999996 0.016 0  -0.04000000000000004 0.016 0  0 0.016 0  0.04000000000000004 0.016 0  0.08000000000000007 0.016 0  0.1200000000000001 0.016 0  0.1599999999999999 0.016 0  0.2 0.016 0  0.24 0.016 0  0.28 0.016 0  0.3200000000000001 0.016 0  0.3600000000000001 0.016 0  0.3999999999999999 0.016 0  0.4399999999999999 0.016 0  0.48 0.016 0  0.52 0.016 0  0.5600000000000001 0.016 0  0.6000000000000001 0.016 0  0.6399999999999999 0.016 0  0.6799999999999999 0.016 0  0.72 0.016 0  0.76 0.016 0  0.8 0.016 0  0.8400000000000001 0.016 0  0.8799999999999999 0.016 0  0.9199999999999999 0.016 0  0.96 0.016 0  1 0.016 0  -1 0.032 0  -0.96 0.032 0  -0.92 0.032 0  -0.88 0.032 0  -0.84 0.032 0  -0.8 0.032 0  -0.76 0.032 0  -0.72 0.032 0  -0.6799999999999999 0.032 0  -0.64 0.032 0  -0.6 0.032 0  -0.5600000000000001 0.032 0  -0.52 0.032 0  -0.48 0.032 0  -0.4399999999999999 0.032 0  -0.4 0.032 0  -0.36 0.032 0  -0.32 0.032 0  -0.28 0.032 0  -0.24 0.032 0  -0.2 0.032 0  -0.16 0.032 0  -0.12 0.032 0  -0.07999999999999996 0.032 0  -0.04000000000000004 0.032 0  0 0.032 0  0.04000000000000004 0.032 0  0.08000000000000007 0.032 0  0.1200000000000001 0.032 0  0.1599999999999999 0.032 0  0.2 0.032 0  0.24 0.032 0  0.28 0.032 0  0.3200000000000001 0.032 0  0.3600000000000001 0.032 0  0.3999999999999999 0.032 0  0.4399999999999999 0.032 0  0.48 0.032 0  0.52 0.032 0  0.5600000000000001 0.032 0  0.6000000000000001 0.032 0  0.6399999999999999 0.032 0  0.6799999999999999 0.032 0  0.72 0.032 0  0.76 0.032 0  0.8 0.032 0  0.8400000000000001 0.032 0  0.8799999999999999 0.032 0  0.9199999999999999 0.032 0  0.96 0.032 0  1 0.032 0  -1 0.04800000000000001 0  -0.96 0.04800000000000001 0  -0.92 0.04800000000000001 0  -0.88 0.04800000000000001 0  -0.84 0.04800000000000001 0  -0.8 0.04800000000000001 0  -0.76 0.04800000000000001 0  -0.72 0.04800000000000001 0  -0.6799999999999999 0.04800000000000001 0  -0.64 0.04800000000000001 0  -0.6 0.04800000000000001 0  -0.5600000000000001 0.04800000000000001 0  -0.52 0.04800000000000001 0  -0.48 0.04800000000000001 0  -0.4399999999999999 0.04800000000000001 0  -0.4 0.04800000000000001 0  -0.36 0.04800000000000001 0  -0.32 0.04800000000000001 0  -0.28 0.04800000000000001 0  -0.24 0.04800000000000001 0  -0.2 0.04800000000000001 0  -0.16 0.04800000000000001 0  -0.12 0.04800000000000001 0  -0.07999999999999996 0.04800000000000001 0  -0.04000000000000004 0.04800000000000001 0  0 0.04800000000000001 0  0.04000000000000004 0.04800000000000001 0  0.08000000000000007 0.04800000000000001 0  0.1200000000000001 0.04800000000000001 0  0.1599999999999999 0.04800000000000001 0  0.2 0.04800000000000001 0  0.24 0.04800000000000001 0  0.28 0.04800000000000001 0  0.3200000000000001 0.04800000000000001 0  0.3600000000000001 0.04800000000000001 0  0.3999999999999999 0.04800000000000001 0  0.4399999999999999 0.04800000000000001 0  0.48 0.04800000000000001 0  0.52 0.04800000000000001 0  0.5600000000000001 0.04800000000000001 0  0.6000000000000001 0.04800000000000001 0  0.6399999999999999 0.04800000000000001 0  0.6799999999999999 0.04800000000000001 0  0.72 0.04800000000000001 0  0.76 0.04800000000000001 0  0.8 0.04800000000000001 0  0.8400000000000001 0.04800000000000001 0  0.8799999999999999 0.04800000000000001 0  0.9199999999999999 0.04800000000000001 0  0.96 0.04800000000000001 0  1 0.04800000000000001 0  -1 0.064 0  -0.96 0.064 0  -0.92 0.064 0  -0.88 0.064 0  -0.84 0.064 0  -0.8 0.064 0  -0.76 0.064 0  -0.72 0.064 0  -0.6799999999999999 0.064 0  -0.64 0.064 0  -0.6 0.064 0  -0.5600000000000001 0.064 0  -0.52 0.064 0  -0.48 0.064 0  -0.4399999999999999 0.064 0  -0.4 0.064 0  -0.36 0.064 0  -0.32 0.064 0  -0.28 0.064 0  -0.24 0.064 0  -0.2 0.064 0  -0.16 0.064 0  -0.12 0.064 0  -0.07999999999999996 0.064 0  -0.04000000000000004 0.064 0  0 0.064 0  0.04000000000000004 0.064 0  0.08000000000000007 0.064 0  0.1200000000000001 0.064 0  0.1599999999999999 0.064 0  0.2 0.064 0  0.24 0.064 0  0.28 0.064 0  0.3200000000000001 0.064 0  0.3600000000000001 0.064 0  0.3999999999999999 0.064 0  0.4399999999999999 0.064 0  0.48 0.064 0  0.52 0.064 0  0.5600000000000001 0.064 0  0.6000000000000001 0.064 0  0.6399999999999999 0.064 0  0.6799999999999999 0.064 0  0.72 0.064 0  0.76 0.064 0  0.8 0.064 0  0.8400000000000001 0.064 0  0.8799999999999999 0.064 0  0.9199999999999999 0.064 0  0.96 0.064 0  1 0.064 0  -1 0.08 0  -0.96 0.08 0  -0.92 0.08 0  -0.88 0.08 0  -0.84 0.08 0  -0.8 0.08 0  -0.76 0.08 0  -0.72 0.08 0  -0.6799999999999999 0.08 0  -0.64 0.08 0  -0.6 0.08 0  -0.5600000000000001 0.08 0  -0.52 0.08 0  -0.48 0.08 0  -0.4399999999999999 0.08 0  -0.4 0.08 0  -0.36 0.08 0  -0.32 0.08 0  -0.28 0.08 0  -0.24 0.08 0  -0.2 0.08 0  -0.16 0.08 0  -0.12 0.08 0  -0.07999999999999996 0.08 0  -0.04000000000000004 0.08 0  0 0.08 0  0.04000000000000004 0.08 0  0.08000000000000007 0.08 0  0.1200000000000001 0.08 0  0.1599999999999999 0.08 0  0.2 0.08 0  0.24 0.08 0  0.28 0.08 0  0.3200000000000001 0.08 0  0.3600000000000001 0.08 0  0.3999999999999999 0.08 0  0.4399999999999999 0.08 0  0.48 0.08 0  0.52 0.08 0  0.5600000000000001 0.08 0  0.6000000000000001 0.08 0  0.6399999999999999 0.08 0  0.6799999999999999 0.08 0  0.72 0.08 0  0.76 0.08 0  0.8 0.08 0  0.8400000000000001 0.08 0  0.8799999999999999 0.08 0  0.9199999999999999 0.08 0  0.96 0.08 0  1 0.08 0  -1 0.09600000000000002 0  -0.96 0.09600000000000002 0  -0.92 0.09600000000000002 0  -0.88 0.09600000000000002 0  -0.84 0.09600000000000002 0  -0.8 0.09600000000000002 0  -0.76 0.09600000000000002 0  -0.72 0.09600000000000002 0  -0.6799999999999999 0.09600000000000002 0  -0.64 0.09600000000000002 0  -0.6 0.09600000000000002 0  -0.5600000000000001 0.09600000000000002 0  -0.52 0.09600000000000002 0  -0.48 0.09600000000000002 0  -0.4399999999999999 0.09600000000000002 0  -0.4 0.09600000000000002 0  -0.36 0.09600000000000002 0  -0.32 0.09600000000000002 0  -0.28 0.09600000000000002 0  -0.24 0.09600000000000002 0  -0.2 0.09600000000000002 0  -0.16 0.09600000000000002 0  -0.12 0.09600000000000002 0  -0.07999999999999996 0.09600000000000002 0  -0.04000000000000004 0.09600000000000002 0  0 0.09600000000000002 0  0.04000000000000004 0.09600000000000002 0  0.08000000000000007 0.09600000000000002 0  0.1200000000000001 0.09600000000000002 0  0.1599999999999999 0.09600000000000002 0  0.2 0.09600000000000002 0  0.24 0.09600000000000002 0  0.28 0.09600000000000002 0  0.3200000000000001 0.09600000000000002 0  0.3600000000000001 0.09600000000000002 0  0.3999999999999999 0.09600000000000002 0  0.4399999999999999 0.09600000000000002 0  0.48 0.09600000000000002 0  0.52 0.09600000000000002 0  0.5600000000000001 0.09600000000000002 0  0.6000000000000001 0.09600000000000002 0  0.6399999999999999 0.09600000000000002 0  0.6799999999999999 0.09600000000000002 0  0.72 0.09600000000000002 0  0.76 0.09600000000000002 0  0.8 0.09600000000000002 0  0.8400000000000001 0.09600000000000002 0  0.8799999999999999 0.09600000000000002 0  0.9199999999999999 0.09600000000000002 0  0.96 0.09600000000000002 0  1 0.09600000000000002 0  -1 0.112 0  -0.96 0.112 0  -0.92 0.112 0  -0.88 0.112 0  -0.84 0.112 0  -0.8 0.112 0  -0.76 0.112 0  -0.72 0.112 0  -0.6799999999999999 0.112 0  -0.64 0.112 0  -0.6 0.112 0  -0.5600000000000001 0.112 0  -0.52 0.112 0  -0.48 0.112 0  -0.4399999999999999 0.112 0  -0.4 0.112 0  -0.36 0.112 0  -0.32 0.112 0  -0.28 0.112 0  -0.24 0.112 0  -0.2 0.112 0  -0.16 0.112 0  -0.12 0.112 0  -0.07999999999999996 0.112 0  -0.04000000000000004 0.112 0  0 0.112 0  0.04000000000000004 0.112 0  0.08000000000000007 0.112 0  0.1200000000000001 0.112 0  0.1599999999999999 0.112 0  0.2 0.112 0  0.24 0.112 0  0.28 0.112 0  0.3200000000000001 0.112 0  0.3600000000000001 0.112 0  0.3999999999999999 0.112 0  0.4399999999999999 0.112 0  0.48 0.112 0  0.52 0.112 0  0.5600000000000001 0.112 0  0.6000000000000001 0.112 0  0.6399999999999999 0.112 0  0.6799999999999999 0.112 0  0.72 0.112 0  0.76 0.112 0  0.8 0.112 0  0.8400000000000001 0.112 0  0.8799999999999999 0.112 0  0.9199999999999999 0.112 0  0.96 0.112 0  1 0.112 0  -1 0.128 0  -0.96 0.128 0  -0.92 0.128 0  -0.88 0.128 0  -0.84 0.128 0  -0.8 0.128 0  -0.76 0.128 0  -0.72 0.128 0  -0.6799999999999999 0.128 0  -0.64 0.128 0  -0.6 0.128 0  -0.5600000000000001 0.128 0  -0.52 0.128 0  -0.48 0.128 0  -0.4399999999999999 0.128 0  -0.4 0.128 0  -0.36 0.128 0  -0.32 0.128 0  -0.28 0.128 0  -0.24 0.128 0  -0.2 0.128 0  -0.16 0.128 0  -0.12 0.128 0  -0.07999999999999996 0.128 0  -0.04000000000000004 0.128 0  0 0.128 0  0.04000000000000004 0.128 0  0.08000000000000007 0.128 0  0.1200000000000001 0.128 0  0.1599
[...]
<PointData  Scalars="f_100"> 
<DataArray  type="Float64"  Name="f_100"  format="ascii">6.0000000000000002e-05  5.4283917318310127e-05  5.3023305685763835e-05  5.2611088690544575e-05  5.2448166574310148e-05  5.2342841191507084e-05  5.2225497600679244e-05  5.2062796319907920e-05  5.1831018704952909e-05  5.1508296462429003e-05  5.1073174232719768e-05  5.0505492817896943e-05  4.9788197063488403e-05  4.8909430393352904e-05  4.7864447944631204e-05  4.6656670606905173e-05  4.5294913766744030e-05  4.3763333747734650e-05  4.1843634782258054e-05  3.3770549845373134e-05  2.4417444947644562e-05  2.0064414222255627e-05  1.7096981448786282e-05  1.4909145969930779e-05  1.3236932230557302e-05  1.1927097376969521e-05  1.0880437357502147e-05  1.0037462702229502e-05  9.3944785150773533e-06  9.0843440866902671e-06  9.6592809125450447e-06  1.3418459488327709e-05  1.8788592591823113e-05  1.9653579292520697e-05  1.8893624968933644e-05  1.7541991304541272e-05  1.5974589384114816e-05  1.4330805855747158e-05  1.2676701940387141e-05  1.1055775630018653e-05  9.5029201157745129e-06  8.0471228214656573e-06  6.7111331818168218e-06  5.5107332238365166e-06  4.4543814453927154e-06  3.5432368678148006e-06  2.7708619845204172e-06  2.1201262752405145e-06  1.5490721574150972e-06  9.4077433452414952e-07  0.0000000000000000e+00  6.0000000000000002e-05  5.4558008334100874e-05  5.3290674061209071e-05  5.2875426843549016e-05  5.2711464973051101e-05  5.2605669167209466e-05  5.2487936078730833e-05  5.2324725149748038e-05  5.2092196015744884e-05  5.1768373502742335e-05  5.1331693104250080e-05  5.0761884165786617e-05  5.0041784919454104e-05  4.9159447579010551e-05  4.8110063364706343e-05  4.6897029385120871e-05  4.5529202675929490e-05  4.3991105155553596e-05  4.2044202441819736e-05  3.4657541020256891e-05  2.5643773991050584e-05  2.1074463474891748e-05  1.7945038440560717e-05  1.5639187702375860e-05  1.3877899048048930e-05  1.2499140435660203e-05  1.1397948008753939e-05  1.0510629859633909e-05  9.8299949645994476e-06  9.4851235791060376e-06  1.0022351790836701e-05  1.3559938335247327e-05  1.8873783337481683e-05  1.9756354010400328e-05  1.8995219608005416e-05  1.7637785087262267e-05  1.6062923762024265e-05  1.4411010133928947e-05  1.2748518201295861e-05  1.1119192895471129e-05  9.5581241975352236e-06  8.0944716842132646e-06  6.7511316422721905e-06  5.5440015395198719e-06  4.4816191992380504e-06  3.5651857862336766e-06  2.7882722768832807e-06  2.1337330103286662e-06  1.5595934453530530e-06  9.4897416850559305e-07  0.0000000000000000e+00  6.0000000000000002e-05  5.4828053858009792e-05  5.3557221695051506e-05  5.3140408308025570e-05  5.2975867780385663e-05  5.2869746659724491e-05  5.2751669002664217e-05  5.2587961111847420e-05  5.2354682147431024e-05  5.2029756495451567e-05  5.1591512223411928e-05  5.1019567426512637e-05  5.0296653455126151e-05  4.9410730952684146e-05  4.8356927127257571e-05  4.7138617360475927e-05  4.5764720065459811e-05  4.4220292198942607e-05  4.2251748614967819e-05  3.5468065732524587e-05  2.6860142827133279e-05  2.2082180336340550e-05  1.8800185265846206e-05  1.6380783964055273e-05  1.4532676159273976e-05  1.3086146868245118e-05  1.1930937844386715e-05  1.0999340687413406e-05  1.0280633922237164e-05  9.8996544320250113e-06  1.0393490744513210e-05  1.3732673467858173e-05  1.8971831220890721e-05  1.9863819940949650e-05  1.9098674553708331e-05  1.7734507391387437e-05  1.6151867676026855e-05  1.4491696702768032e-05  1.2820748692005163e-05  1.1182974563921546e-05  9.6136488532070909e-06  8.1421000229172060e-06  6.7913707092861017e-06  5.5774741096992574e-06  4.5090278133678176e-06  3.5872755171882784e-06  2.8057969629167311e-06  2.1474312633260369e-06  1.5701827133962857e-06  9.5716788337590728e-07  0.0000000000000000e+00  6.0000000000000002e-05  5.5093258009209059e-05  5.3822907918380865e-05  5.3406026271546994e-05  5.3241377443704486e-05  5.3135079071323977e-05  5.3016702767398795e-05  5.2852510990444370e-05  5.2618484097702371e-05  5.2292452606347597e-05  5.1852638911923555e-05  5.1278550064636200e-05  5.0552810250583397e-05  4.9663288162476508e-05  4.8605046873288948e-05  4.7381442007468671e-05  4.6001472543043441e-05  4.4450885673353670e-05  4.2465831743962625e-05  3.6212605252011885e-05  2.8035590647384695e-05  2.3082005663340368e-05  1.9660016452207613e-05  1.7132695817297082e-05  1.5200673634667423e-05  1.3687932945419299e-05  1.2479493324169935e-05  1.1503872013008544e-05  1.0746826696770808e-05  1.0328565070875228e-05  1.0774475499464980e-05  1.3932839700976054e-05  1.9082940590116439e-05  1.9976048253805499e-05  1.9204019518296075e-05  1.7832169940231078e-05  1.6241426866752882e-05  1.4572869151098456e-05  1.2893396019688097e-05  1.1247122612272216e-05  9.6694955440416972e-06  8.1900088410962269e-06  6.8318509824097912e-06  5.6111511910583828e-06  4.5366072675317454e-06  3.6095058246258916e-06  2.8234356257519424e-06  2.1612203943308869e-06  1.5808389293315990e-06  9.6535254157116660e-07  0.0000000000000000e+00  6.0000000000000002e-05  5.5353062614868948e-05  5.4087708285584432e-05  5.3672278048773293e-05  5.3507997717129212e-05  5.3401672220307948e-05  5.3283043892090942e-05  5.3118381588051537e-05  5.2883608832268030e-05  5.2556468934149578e-05  5.2115080392823934e-05  5.1538839415883184e-05  5.0810262729788517e-05  4.9917126678671896e-05  4.8854430053033905e-05  4.7625510610347575e-05  4.6239466551529637e-05  4.4682880410385847e-05  4.2686007281750138e-05  3.6900442735146710e-05  2.9155173135634418e-05  2.4069958664605066e-05  2.0522479086115615e-05  1.7893860860123945e-05  1.5881418046875809e-05  1.4304402233531466e-05  1.3043770004061579e-05  1.2024554287496107e-05  1.1229037031377514e-05  1.0772470915607513e-05  1.1166802358115369e-05  1.4157708932752965e-05  1.9207261304140320e-05  2.0093091907020947e-05  1.9311276449461954e-05  1.7930781880638609e-05  1.6331606218197216e-05  1.4654530775829505e-05  1.2966462704401066e-05  1.1311639024488495e-05  9.7256657970292534e-06  8.2381992521356799e-06  6.8725732053317347e-06  5.6450332092644359e-06  4.5643577259837396e-06  3.6318766646833434e-06  2.8411880459000032e-06  2.1750999801755731e-06  1.5915613564620507e-06  9.7352665628371072e-07  0.0000000000000000e+00  6.0000000000000002e-05  5.5607103912447790e-05  5.4351612461057342e-05  5.3939164854657269e-05  5.3775733594913473e-05  5.3669532323527283e-05  5.3550699019980328e-05  5.3385579733190135e-05  5.3150063298035132e-05  5.2821812528794953e-05  5.2378843814004990e-05  5.1800442715905472e-05  5.1069018194152180e-05  5.0172253831125450e-05  4.9105083965428331e-05  4.7870830300528887e-05  4.6478708380952290e-05  4.4916274058366497e-05  4.2911839421215334e-05  3.7539687691792381e-05  3.0213258290624759e-05  2.5042862154516570e-05  2.1385761660154986e-05  1.8663341143819300e-05  1.6574519001545233e-05  1.4935522760264981e-05  1.3623977225678514e-05  1.2561763041469558e-05  1.1727761748790993e-05  1.1231994315417747e-05  1.1571762134993466e-05  1.4405349024263726e-05  1.9344889994013731e-05  2.0214985962293699e-05  1.9420459933410392e-05  1.8030349938636460e-05  1.6422409817496375e-05  1.4736684606837136e-05  1.3039951187892684e-05  1.1376525789878430e-05  9.7821611945371279e-06  8.2866724614709086e-06  6.9135382419070716e-06  5.6791207303723777e-06  4.5922795058761105e-06  3.6543881524631889e-06  2.8590541669038030e-06  2.1890697768800685e-06  1.6023495058203014e-06  9.8168991200334249e-07  0.0000000000000000e+00  6.0000000000000002e-05  5.5855176619409527e-05  5.4614622731522248e-05  5.4206691620299933e-05  5.4044591256320833e-05  5.3938665981925190e-05  5.3819674918268653e-05  5.3654112286788528e-05  5.3417854434000536e-05  5.3088490406542060e-05  5.2643936267630337e-05  5.2063367124002022e-05  5.1329083850202100e-05  5.0428676840072947e-05  4.9357015790634651e-05  4.8117408087510080e-05  4.6719204181164033e-05  4.5151066109266446e-05  4.3142909284751878e-05  3.8137363411256062e-05  3.1209510039071855e-05  2.5998115572800581e-05  2.2248260892928396e-05  1.9440303827860105e-05  1.7279656141498348e-05  1.5581318149515998e-05  1.4220372452344027e-05  1.3115916401810172e-05  1.2243533038235487e-05  1.1707776728764486e-05  1.1990496955159748e-05  1.4674408095735055e-05  1.9495872899079328e-05  2.0341747820722959e-05  1.9531577532011702e-05  1.8130878548100525e-05  1.6513841004259325e-05  1.4819333427461292e-05  1.3113863840822519e-05  1.1441784901632085e-05  9.8389833657366517e-06  8.3354297518852086e-06  6.9547470564025983e-06  5.7134144372780538e-06  4.6203730512512101e-06  3.6770405347096302e-06  2.8770340671037918e-06  2.2031296887842668e-06  1.6132030970402067e-06  9.8984293463331693e-07  0.0000000000000000e+00  6.0000000000000002e-05  5.6097204166596398e-05  5.4876752960962014e-05  5.4474866839082245e-05  5.4314578018990909e-05  5.4209080168263706e-05  5.4089978477929394e-05  5.3923986147449723e-05  5.3686989180247309e-05  5.3356509562443492e-05  5.2910364806164701e-05  5.2327619742688811e-05  5.1590466832398698e-05  5.0686402841525595e-05  4.9610232616848561e-05  4.8365250884432202e-05  4.6960959974403935e-05  4.5387257132850857e-05  4.3378820343125193e-05  3.8699521319457231e-05  3.2146493348373574e-05  2.6933664880791592e-05  2.3108579025074036e-05  2.0224018493090595e-05  1.7996577128045686e-05  1.6241866370163469e-05  1.4833260899287695e-05  1.3687475932325662e-05  1.2776921587655689e-05  1.2200486664686620e-05  1.2424043392177497e-05  1.4963959842616918e-05  1.9660209414052642e-05  2.0473377402139120e-05  1.9644630069607833e-05  1.8232369958961192e-05  1.6605902411876569e-05  1.4902479791574340e-05  1.3188202968737266e-05  1.1507418355602497e-05  9.8961339795169185e-06  8.3844724713809528e-06  6.9962006972173922e-06  5.7479151103294624e-06  4.6486389116395396e-06  3.6998341673365919e-06  2.8951279364288250e-06  2.2172797431662148e-06  1.6241220262328994e-06  9.9798710288655532e-07  0.0000000000000000e+00  6.0000000000000002e-05  5.6333214086521810e-05  5.5138027850623263e-05  5.4743702433769138e-05  5.4585702298403806e-05  5.4480782216369043e-05  5.4361616713371509e-05  5.4195208255758435e-05  5.3957474485370569e-05  5.3625876980650516e-05  5.3178136455610677e-05  5.2593207633850335e-05  5.1853174221955296e-05  5.0945438908208505e-05  4.9864741462402539e-05  4.8614365529242100e-05  4.7203981667395811e-05  4.5624848183711026e-05  4.3619201698472469e-05  3.9231361951430671e-05  3.3028257156850010e-05  2.7848018073185965e-05  2.3965532481947981e-05  2.1013862900751124e-05  1.8725101525349635e-05  1.6917302681965884e-05  1.5462998119178636e-05  1.4276949342525285e-05  1.3328540192608613e-05  1.2710825419101442e-05  1.2873365716707423e-05  1.5273392500736588e-05  1.9837855791349054e-05  2.0609857288732318e-05  1.9759611882272909e-05  1.8334824330210321e-05  1.6698596002764131e-05  1.4986126038001405e-05  1.3262970817084555e-05  1.1573428149310414e-05  9.9536147386354820e-06  8.4338020231765859e-06  7.0379002834688940e-06  5.7826236113624298e-06  4.6770777244485842e-06  3.7227694969461553e-06  2.9133360573169148e-06  2.2315200693659877e-06  1.6351063395307699e-06  1.0061243940392074e-06  0.0000000000000000e+00  6.0000000000000002e-05  5.6563317711393002e-05  5.5398482401831630e-05  5.5013213637568983e-05  5.4857973571533050e-05  5.4753779811364783e-05  5.4634596761899390e-05  5.4467785597770463e-05  5.4229317312601018e-05  5.3896599642928174e-05  5.3447258226444810e-05  5.2860137832076026e-05  5.2117213062369332e-05  5.1205792066832196e-05  5.0120549294000958e-05  4.8864758802238516e-05  4.7448275062758659e-05  4.5863840351283051e-05  4.3863709746272174e-05  3.9737351639496197e-05  3.3859506341601123e-05  2.8740250247873072e-05  2.4818163982335830e-05  2.1809332853622852e-05  1.9465127852116478e-05  1.7607824933572369e-05  1.6109994283144859e-05  1.4884894289895114e-05  1.3899047678162528e-05  1.3239531761615715e-05  1.3339381911238674e-05  1.5602329081599326e-05  2.0028728652862943e-05  2.0751152850841513e-05  1.9876511040053100e-05  1.8438239811955557e-05  1.6791923099119051e-05  1.5070274302923498e-05  1.3338169575490519e-05  1.1639816281155474e-05  1.0011427374898232e-05  8.4834198574599053e-06  7.0798469939412400e-06  5.8175408705562118e-06  4.7056902004708433e-06  3.7458470456283164e-06  2.9316587890298568e-06  2.2458508816095528e-06  1.6461562112192984e-06  1.0142572582643307e-06  0.0000000000000000e+00  6.0000000000000002e-05  5.6787693472805137e-05  5.5658161506586623e-05  5.5283418883840407e-05  5.5131402343164961e-05  5.5028080980470928e-05  5.4908925882926619e-05  5.4741725207803555e-05  5.4502524644847702e-05  5.4168684535694107e-05  5.3717737122658235e-05  5.3128417355678985e-05  5.2382590372246682e-05  5.1467469312347075e-05  5.0377663041773567e-05  4.9116437440648587e-05  4.7693845869640457e-05  4.6104234427081640e-05  4.4112028627692909e-05  4.0221329582662682e-05  3.4645127812575639e-05  2.9609984585074329e-05  2.5665754517343873e-05  2.2610053799720835e-05  2.0216642309906743e-05  1.8313700209411980e-05  1.6774719475623036e-05  1.5511922862643439e-05  1.4489153065510926e-05  1.3787386214880989e-05  1.3822984357366755e-05  1.5950570047104770e-05  2.0232708106510929e-05  2.0897212369865932e-05  1.9995309550827998e-05  1.8542612619936045e-05  1.6885884410454226e-05  1.5154926530772474e-05  1.3413801381482914e-05  1.1706584749817387e-05  1.0069573645196026e-05  8.5333274645923240e-06  7.1220420579807864e-06  5.8526678756109627e-06  4.7344771119581576e-06  3.7690673984587240e-06  2.9500965547565168e-06  2.2602724648704105e-06  1.6572719255840632e-06  1.0223885167251549e-06  0.0000000000000000e+00  6.0000000000000002e-05  5.7006573210029155e-05  5.5917119611771476e-05  5.5554339700420093e-05  5.5406000113675960e-05  5.5303694084035894e-05  5.5184611456912987e-05  5.5017034170629581e-05  5.4777103488843255e-05  5.4442138655839385e-05  5.3989580149235958e-05  5.3398053215806693e-05  5.2649313155898338e-05  5.1730477619716124e-05  5.0636089611713436e-05  4.9369408150767383e-05  4.7940699713575111e-05  4.6346030667131418e-05  4.4363869796840783e-05  4.0686603182882029e-05  3.5389928774930936e-05  3.0457352275720696e-05  2.6507833422618521e-05  2.3415792878734712e-05  2.0979728364556887e-05  1.9035272273825962e-05  1.7457709631260427e-05  1.6158706521573766e-05  1.5099619957429449e-05  1.4355215272923376e-05  1.4325056586542195e-05  1.6318052116915186e-05  2.0449640356364634e-05  2.1047967170607573e-05  2.0115983552879064e-05  1.8647937105235485e-05  1.6980480058929193e-05  1.5240084484027567e-05  1.3489868323805954e-05  1.1773735553831694e-05  1.0128055328254719e-05  8.5835263695117344e-06  7.1644867479964589e-06  5.8880056628366202e-06  4.7634392828070767e-06  3.7924311932143238e-06  2.9686498310070573e-06  2.2747851632246271e-06  1.6684538617676812e-06  1.0305212794060574e-06  0.0000000000000000e+00  6.0000000000000002e-05  5.7220230990210457e-05  5.6175420418676791e-05  5.5826000605511515e-05  5.5681779347313516e-05  5.5580627806539827e-05  5.5461660984004241e-05  5.5293719623151501e-05  5.5053060878543203e-05  5.4716969015544342e-05  5.4262794318350505e-05  5.3669052423981454e-05  5.2917388412104585e-05  5.1994823953646615e-05  5.0895835895964784e-05  4.9623677618099052e-05  4.8188842145619516e-05  4.6589228630953326e-05  4.4618970955754016e-05  4.1136031335298458e-05  3.6098501398925734e-05  3.1282939287987602e-05  2.7344185672937181e-05  2.4226470698340549e-05  2.1754576717951866e-05  1.9772969503834435e-05  1.8159572908246712e-05  1.6825981381158618e-05  1.5731271134197463e-05  1.4943895738083520e-05  1.4846487122891694e-05  1.6704818698880074e-05  2.0679339755945735e-05  2.1203331773082938e-05  2.0238503501958925e-05  1.8754205821374325e-05  1.7075709603288891e-05  1.5325749752242414e-05  1.3566372445443859e-05  1.1841270691325717e-05  1.0186874221979629e-05  8.6340181271254372e-06  7.2071823732824208e-06  5.9235553098149481e-06  4.7925775804802872e-06  3.8159391119118067e-06  2.9873191388886823e-06  2.2893893702516461e-06  1.6797024810665251e-06  1.0386588793258446e-06  0.0000000000000000e+00  6.0000000000000002e-05  5.7428974024598790e-05  5.6433136591484176e-05  5.6098429002810229e-05  5.5958753440234019e-05  5.5858891147366525e-05  5.5740082082361062e-05  5.5571788755635723e-05  5.5330403877904719e-05  5.4993182646265408e-05  5.4537386654496977e-05  5.3941421998348982e-05  5.3186823141372211e-05  5.2260515276644193e-05  5.1156908781344749e-05  4.9879252515861101e-05  4.8438278650861289e-05  4.6833827081463515e-05  4.4877094551706976e-05  4.1572096312012593e-05  3.6775162136671466e-05  3.2087727765472417e-05  2.8174856108979093e-05  2.5042172463970868e-05  2.2541495405460991e-05  2.0527313133509575e-05  1.8880996381673053e-05  1.7514553763414181e-05  1.6384993357798305e-05  1.5554359264606793e-05  1.5388181187677806e-05  1.7110998714120027e-05  2.0921590292619264e-05  2.1363204071998227e-05  2.0362834357579354e-05  1.8861409590509748e-05  1.7171572062055213e-05  1.5411923760565503e-05  1.3643315746446548e-05  1.1909192159901475e-05  1.0246032141295369e-05  8.6848043185206017e-06  7.2501302749299445e-06  5.9593179293558157e-06  4.8218929093552185e-06  3.8395918738435340e-06  3.0061050369260623e-06  2.3040855211127464e-06  1.6910183162059225e-06  1.0468048203337087e-06  0.0000000000000000e+00  6.0000000000000002e-05  5.7633135332643755e-05  5.6690349457248465e-05  5.6371655074107209e-05  5.6236936687720065e-05  5.6138493411189012e-05  5.6019882486170667e-05  5.5851248812559007e-05  5.5609139583148827e-05  5.5270786602038135e-05  5.4813364198757231e-05  5.4215168968864977e-05  5.3457624351953154e-05  5.2527558555688694e-05  5.1419315156414986e-05  5.0136139512149414e-05  4.8689014656404861e-05  4.7079823932782042e-05  4.5138025984520159e-05  4.1996965330883143e-05  3.7423934509251135e-05  3.2873038080247040e-05  2.9000150726012150e-05  2.5863158286175823e-05  2.3340919866097081e-05  2.1298925705020473e-05  1.9622752988597086e-05  1.8225305986348163e-05  1.7061742383578411e-05  1.6187597148571103e-05  1.5951070847449015e-05  1.7536791503023841e-05  2.1176146514254032e-05  2.1527465550656090e-05  2.0488935772334811e-05  1.8969537570100356e-05  1.7268065936479853e-05  1.5498607777963025e-05  1.3720700186631595e-05  1.1977501956653308e-05  1.0305530916398754e-05  8.7358865478496233e-06  7.2933318216359339e-06  5.9952946645176262e-06  4.8513862052451810e-06  3.8633902298429945e-06  3.0250081151491330e-06  2.3188740860042387e-06  1.7024019622201609e-06  1.0549627361512938e-06  0.0000000000000000e+00  6.0000000000000002e-05  5.7833067862515432e-05  5.6947148686445421e-05  5.6645711668053390e-05  5.6516344250138933e-05  5.6419444197852522e-05  5.6301070043338990e-05  5.6132107093120027e-05  5.5889275124592175e-05  5.5549787962216573e-05  5.5090734012348003e-05  5.4490300381609033e-05  5.3729799064846226e-05  5.2795960767778613e-05  5.1683061917364017e-05  5.0394345276009300e-05  4.8941055538948181e-05  4.7327216235250513e-05  4.5401571634258755e-05  4.2412543065134189e-05  3.8048556656628777e-05  3.3640475556172447e-05  2.9820635450993690e-05  2.6689872615120808e-05  2.4153422898337755e-05  2.2088539661797596e-05  2.0385708682618674e-05  1.8959202363540088e-05  1.7762548178060440e-05  1.6844665379877505e-05  1.6536124051136746e-05  1.7982456152447712e-05  2.1442733922478708e-05  2.1695981535012910e-05  2.0616762287319463e-05  1.9078577321086969e-05  1.7365189233654720e-05  1.5585802925308934e-05  1.3798527688220936e-05  1.2046202078308927e-05  1.0365372391356107e-05  8.7872664397721947e-06  7.3367884062490246e-06  6.0314866845020290e-06  4.8810584308830411e-06  3.8873349575589186e-06  3.0440289902198748e-06  2.3337555647360383e-06  1.7138540686340665e-06  1.0631363587095739e-06  0.0000000000000000e+00  6.0000000000000002e-05  5.8029139824103850e-05  5.7203631947858457e-05  5.6920634184118249e-05  5.6796992117318471e-05  5.6701753391671672e-05  5.6583652712865856e-05  5.6414370951458494e-05  5.6170817668120223e-05  5.5830193833748388e-05  5.5369503179580838e-05  5.4766823302382836e-05  5.4003354317964852e-05  5.306572890454832