<?xml version="1.0"?>
<VTKFile type="UnstructuredGrid"  version="0.1"  >
<UnstructuredGrid>
<Piece  NumberOfPoints="2601" NumberOfCells="5000">
<Points>
<DataArray  type="Float64"  NumberOfComponents="3"  format="ascii">-1 0 0  -0.96 0 0  -0.92 0 0  -0.88 0 0  -0.84 0 0  -0.8 0 0  -0.76 0 0  -0.72 0 0  -0.6799999999999999 0 0  -0.64 0 0  -0.6 0 0  -0.5600000000000001 0 0  -0.52 0 0  -0.48 0 0  -0.4399999999999999 0 0  -0.4 0 0  -0.36 0 0  -0.32 0 0  -0.28 0 0  -0.24 0 0  -0.2 0 0  -0.16 0 0  -0.12 0 0  -0.07999999999999996 0 0  -0.04000000000000004 0 0  0 0 0  0.04000000000000004 0 0  0.08000000000000007 0 0  0.1200000000000001 0 0  0.1599999999999999 0 0  0.2 0 0  0.24 0 0  0.28 0 0  0.3200000000000001 0 0  0.3600000000000001 0 0  0.3999999999999999 0 0  0.4399999999999999 0 0  0.48 0 0  0.52 0 0  0.5600000000000001 0 0  0.6000000000000001 0 0  0.6399999999999999 0 0  0.6799999999999999 0 0  0.72 0 0  0.76 0 0  0.8 0 0  0.8400000000000001 0 0  0.8799999999999999 0 0  0.9199999999999999 0 0  0.96 0 0  1 0 0  -1 0.016 0  -0.96 0.016 0  -0.92 0.016 0  -0.88 0.016 0  -0.84 0.016 0  -0.8 0.016 0  -0.76 0.016 0  -0.72 0.016 0  -0.6799999999999999 0.016 0  -0.64 0.016 0  -0.6 0.016 0  -0.5600000000000001 0.016 0  -0.52 0.016 0  -0.48 0.016 0  -0.4399999999999999 0.016 0  -0.4 0.016 0  -0.36 0.016 0  -0.32 0.016 0  -0.28 0.016 0  -0.24 0.016 0  -0.2 0.016 0  -0.16 0.016 0  -0.12 0.016 0  -0.07999999999999996 0.016 0  -0.04000000000000004 0.016 0  0 0.016 0  0.04000000000000004 0.016 0  0.08000000000000007 0.016 0  0.1200000000000001 0.016 0  0.1599999999999999 0.016 0  0.2 0.016 0  0.24 0.016 0  0.28 0.016 0  0.3200000000000001 0.016 0  0.3600000000000001 0.016 0  0.3999999999999999 0.016 0  0.4399999999999999 0.016 0  0.48 0.016 0  0.52 0.016 0  0.5600000000000001 0.016 0  0.6000000000000001 0.016 0  0.6399999999999999 0.016 0  0.6799999999999999 0.016 0  0.72 0.016 0  0.76 0.016 0  0.8 0.016 0  0.8400000000000001 0.016 0  0.8799999999999999 0.016 0  0.9199999999999999 0.016 0  0.96 0.016 0  1 0.016 0  -1 0.032 0  -0.96 0.032 0  -0.92 0.032 0  -0.88 0.032 0  -0.84 0.032 0  -0.8 0.032 0  -0.76 0.032 0  -0.72 0.032 0  -0.6799999999999999 0.032 0  -0.64 0.032 0  -0.6 0.032 0  -0.5600000000000001 0.032 0  -0.52 0.032 0  -0.48 0.032 0  -0.4399999999999999 0.032 0  -0.4 0.032 0  -0.36 0.032 0  -0.32 0.032 0  -0.28 0.032 0  -0.24 0.032 0  -0.2 0.032 0  -0.16 0.032 0  -0.12 0.032 0  -0.07999999999999996 0.032 0  -0.04000000000000004 0.032 0  0 0.032 0  0.04000000000000004 0.032 0  0.08000000000000007 0.032 0  0.1200000000000001 0.032 0  0.1599999999999999 0.032 0  0.2 0.032 0  0.24 0.032 0  0.28 0.032 0  0.3200000000000001 0.032 0  0.3600000000000001 0.032 0  0.3999999999999999 0.032 0  0.4399999999999999 0.032 0  0.48 0.032 0  0.52 0.032 0  0.5600000000000001 0.032 0  0.6000000000000001 0.032 0  0.6399999999999999 0.032 0  0.6799999999999999 0.032 0  0.72 0.032 0  0.76 0.032 0  0.8 0.032 0  0.8400000000000001 0.032 0  0.8799999999999999 0.032 0  0.9199999999999999 0.032 0  0.96 0.032 0  1 0.032 0  -1 0.04800000000000001 0  -0.96 0.04800000000000001 0  -0.92 0.04800000000000001 0  -0.88 0.04800000000000001 0  -0.84 0.04800000000000001 0  -0.8 0.04800000000000001 0  -0.76 0.04800000000000001 0  -0.72 0.04800000000000001 0  -0.6799999999999999 0.04800000000000001 0  -0.64 0.04800000000000001 0  -0.6 0.04800000000000001 0  -0.5600000000000001 0.04800000000000001 0  -0.52 0.04800000000000001 0  -0.48 0.04800000000000001 0  -0.4399999999999999 0.04800000000000001 0  -0.4 0.04800000000000001 0  -0.36 0.04800000000000001 0  -0.32 0.04800000000000001 0  -0.28 0.04800000000000001 0  -0.24 0.04800000000000001 0  -0.2 0.04800000000000001 0  -0.16 0.04800000000000001 0  -0.12 0.04800000000000001 0  -0.07999999999999996 0.04800000000000001 0  -0.04000000000000004 0.04800000000000001 0  0 0.04800000000000001 0  0.04000000000000004 0.04800000000000001 0  0.08000000000000007 0.04800000000000001 0  0.1200000000000001 0.04800000000000001 0  0.1599999999999999 0.04800000000000001 0  0.2 0.04800000000000001 0  0.24 0.04800000000000001 0  0.28 0.04800000000000001 0  0.3200000000000001 0.04800000000000001 0  0.3600000000000001 0.04800000000000001 0  0.3999999999999999 0.04800000000000001 0  0.4399999999999999 0.04800000000000001 0  0.48 0.04800000000000001 0  0.52 0.04800000000000001 0  0.5600000000000001 0.04800000000000001 0  0.6000000000000001 0.04800000000000001 0  0.6399999999999999 0.04800000000000001 0  0.6799999999999999 0.04800000000000001 0  0.72 0.04800000000000001 0  0.76 0.04800000000000001 0  0.8 0.04800000000000001 0  0.8400000000000001 0.04800000000000001 0  0.8799999999999999 0.04800000000000001 0  0.9199999999999999 0.04800000000000001 0  0.96 0.04800000000000001 0  1 0.04800000000000001 0  -1 0.064 0  -0.96 0.064 0  -0.92 0.064 0  -0.88 0.064 0  -0.84 0.064 0  -0.8 0.064 0  -0.76 0.064 0  -0.72 0.064 0  -0.6799999999999999 0.064 0  -0.64 0.064 0  -0.6 0.064 0  -0.5600000000000001 0.064 0  -0.52 0.064 0  -0.48 0.064 0  -0.4399999999999999 0.064 0  -0.4 0.064 0  -0.36 0.064 0  -0.32 0.064 0  -0.28 0.064 0  -0.24 0.064 0  -0.2 0.064 0  -0.16 0.064 0  -0.12 0.064 0  -0.07999999999999996 0.064 0  -0.04000000000000004 0.064 0  0 0.064 0  0.04000000000000004 0.064 0  0.08000000000000007 0.064 0  0.1200000000000001 0.064 0  0.1599999999999999 0.064 0  0.2 0.064 0  0.24 0.064 0  0.28 0.064 0  0.3200000000000001 0.064 0  0.3600000000000001 0.064 0  0.3999999999999999 0.064 0  0.4399999999999999 0.064 0  0.48 0.064 0  0.52 0.064 0  0.5600000000000001 0.064 0  0.6000000000000001 0.064 0  0.6399999999999999 0.064 0  0.6799999999999999 0.064 0  0.72 0.064 0  0.76 0.064 0  0.8 0.064 0  0.8400000000000001 0.064 0  0.8799999999999999 0.064 0  0.9199999999999999 0.064 0  0.96 0.064 0  1 0.064 0  -1 0.08 0  -0.96 0.08 0  -0.92 0.08 0  -0.88 0.08 0  -0.84 0.08 0  -0.8 0.08 0  -0.76 0.08 0  -0.72 0.08 0  -0.6799999999999999 0.08 0  -0.64 0.08 0  -0.6 0.08 0  -0.5600000000000001 0.08 0  -0.52 0.08 0  -0.48 0.08 0  -0.4399999999999999 0.08 0  -0.4 0.08 0  -0.36 0.08 0  -0.32 0.08 0  -0.28 0.08 0  -0.24 0.08 0  -0.2 0.08 0  -0.16 0.08 0  -0.12 0.08 0  -0.07999999999999996 0.08 0  -0.04000000000000004 0.08 0  0 0.08 0  0.04000000000000004 0.08 0  0.08000000000000007 0.08 0  0.1200000000000001 0.08 0  0.1599999999999999 0.08 0  0.2 0.08 0  0.24 0.08 0  0.28 0.08 0  0.3200000000000001 0.08 0  0.3600000000000001 0.08 0  0.3999999999999999 0.08 0  0.4399999999999999 0.08 0  0.48 0.08 0  0.52 0.08 0  0.5600000000000001 0.08 0  0.6000000000000001 0.08 0  0.6399999999999999 0.08 0  0.6799999999999999 0.08 0  0.72 0.08 0  0.76 0.08 0  0.8 0.08 0  0.8400000000000001 0.08 0  0.8799999999999999 0.08 0  0.9199999999999999 0.08 0  0.96 0.08 0  1 0.08 0  -1 0.09600000000000002 0  -0.96 0.09600000000000002 0  -0.92 0.09600000000000002 0  -0.88 0.09600000000000002 0  -0.84 0.09600000000000002 0  -0.8 0.09600000000000002 0  -0.76 0.09600000000000002 0  -0.72 0.09600000000000002 0  -0.6799999999999999 0.09600000000000002 0  -0.64 0.09600000000000002 0  -0.6 0.09600000000000002 0  -0.5600000000000001 0.09600000000000002 0  -0.52 0.09600000000000002 0  -0.48 0.09600000000000002 0  -0.4399999999999999 0.09600000000000002 0  -0.4 0.09600000000000002 0  -0.36 0.09600000000000002 0  -0.32 0.09600000000000002 0  -0.28 0.09600000000000002 0  -0.24 0.09600000000000002 0  -0.2 0.09600000000000002 0  -0.16 0.09600000000000002 0  -0.12 0.09600000000000002 0  -0.07999999999999996 0.09600000000000002 0  -0.04000000000000004 0.09600000000000002 0  0 0.09600000000000002 0  0.04000000000000004 0.09600000000000002 0  0.08000000000000007 0.09600000000000002 0  0.1200000000000001 0.09600000000000002 0  0.1599999999999999 0.09600000000000002 0  0.2 0.09600000000000002 0  0.24 0.09600000000000002 0  0.28 0.09600000000000002 0  0.3200000000000001 0.09600000000000002 0  0.3600000000000001 0.09600000000000002 0  0.3999999999999999 0.09600000000000002 0  0.4399999999999999 0.09600000000000002 0  0.48 0.09600000000000002 0  0.52 0.09600000000000002 0  0.5600000000000001 0.09600000000000002 0  0.6000000000000001 0.09600000000000002 0  0.6399999999999999 0.09600000000000002 0  0.6799999999999999 0.09600000000000002 0  0.72 0.09600000000000002 0  0.76 0.09600000000000002 0  0.8 0.09600000000000002 0  0.8400000000000001 0.09600000000000002 0  0.8799999999999999 0.09600000000000002 0  0.9199999999999999 0.09600000000000002 0  0.96 0.09600000000000002 0  1 0.09600000000000002 0  -1 0.112 0  -0.96 0.112 0  -0.92 0.112 0  -0.88 0.112 0  -0.84 0.112 0  -0.8 0.112 0  -0.76 0.112 0  -0.72 0.112 0  -0.6799999999999999 0.112 0  -0.64 0.112 0  -0.6 0.112 0  -0.5600000000000001 0.112 0  -0.52 0.112 0  -0.48 0.112 0  -0.4399999999999999 0.112 0  -0.4 0.112 0  -0.36 0.112 0  -0.32 0.112 0  -0.28 0.112 0  -0.24 0.112 0  -0.2 0.112 0  -0.16 0.112 0  -0.12 0.112 0  -0.07999999999999996 0.112 0  -0.04000000000000004 0.112 0  0 0.112 0  0.04000000000000004 0.112 0  0.08000000000000007 0.112 0  0.1200000000000001 0.112 0  0.1599999999999999 0.112 0  0.2 0.112 0  0.24 0.112 0  0.28 0.112 0  0.3200000000000001 0.112 0  0.3600000000000001 0.112 0  0.3999999999999999 0.112 0  0.4399999999999999 0.112 0  0.48 0.112 0  0.52 0.112 0  0.5600000000000001 0.112 0  0.6000000000000001 0.112 0  0.6399999999999999 0.112 0  0.6799999999999999 0.112 0  0.72 0.112 0  0.76 0.112 0  0.8 0.112 0  0.8400000000000001 0.112 0  0.8799999999999999 0.112 0  0.9199999999999999 0.112 0  0.96 0.112 0  1 0.112 0  -1 0.128 0  -0.96 0.128 0  -0.92 0.128 0  -0.88 0.128 0  -0.84 0.128 0  -0.8 0.128 0  -0.76 0.128 0  -0.72 0.128 0  -0.6799999999999999 0.128 0  -0.64 0.128 0  -0.6 0.128 0  -0.5600000000000001 0.128 0  -0.52 0.128 0  -0.48 0.128 0  -0.4399999999999999 0.128 0  -0.4 0.128 0  -0.36 0.128 0  -0.32 0.128 0  -0.28 0.128 0  -0.24 0.128 0  -0.2 0.128 0  -0.16 0.128 0  -0.12 0.128 0  -0.07999999999999996 0.128 0  -0.04000000000000004 0.128 0  0 0.128 0  0.04000000000000004 0.128 0  0.08000000000000007 0.128 0  0.1200000000000001 0.128 0  0.1599
[...]
<PointData  Scalars="f_100"> 
<DataArray  type="Float64"  Name="f_100"  format="ascii">6.0000000000000002e-05  5.1589607763835200e-05  4.6249232883813468e-05  4.1013350732214703e-05  3.6254111832346825e-05  3.2482993871178328e-05  2.9861059268839464e-05  2.8232770407493124e-05  2.7313907038494861e-05  2.6835871044342011e-05  2.6603851594063780e-05  2.6497673391813228e-05  2.6450982964033129e-05  2.6428747115483383e-05  2.6407671788224932e-05  2.6353178611422812e-05  2.6178485829401488e-05  2.5669699068138369e-05  2.4371860952016450e-05  1.8729552575721602e-05  1.1889838546910150e-05  7.8257056025148767e-06  4.8156655378939240e-06  2.7344964451211358e-06  1.4344606849722256e-06  6.9935708636176756e-07  3.1927099182082455e-07  1.3750931889580948e-07  5.6267456459658896e-08  2.2035809610503574e-08  8.4902886625927152e-09  4.7539542381319751e-09  3.9421054285504932e-09  1.9838548111677065e-09  8.2745590481802503e-10  3.1299172813934156e-10  1.1186635486242693e-10  3.8509290650025675e-11  1.2893813386226504e-11  4.2221541301674568e-12  1.3567291220913164e-12  4.2879166072511762e-13  1.3350966474673093e-13  4.1006425330432149e-14  1.2437197221860401e-14  3.7283311692257569e-15  1.1055221855902000e-15  3.2446370347987665e-16  9.4201909576817622e-17  2.6120470224514644e-17  0.0000000000000000e+00  6.0000000000000002e-05  5.1867579781000272e-05  4.6506219313418105e-05  4.1244214487032329e-05  3.6457326524700040e-05  3.2661531253193879e-05  3.0020864781707172e-05  2.8380155728150138e-05  2.7453924845417714e-05  2.6971904090276449e-05  2.6737890269668517e-05  2.6630777769623494e-05  2.6583675001670186e-05  2.6561271162123336e-05  2.6540148662923392e-05  2.6485694140687730e-05  2.6311113690369845e-05  2.5802422329533187e-05  2.4491347006105677e-05  1.9251440184809172e-05  1.2569862467362822e-05  8.3103774662823604e-06  5.1318139377649959e-06  2.9236009257226730e-06  1.5381560302864497e-06  7.5180857894854766e-07  3.4395297447759200e-07  1.4840820631352535e-07  6.0819619687409634e-08  2.3846147713923775e-08  9.1750275545975980e-09  4.8600373182347959e-09  3.9760702425768816e-09  2.0030189111313427e-09  8.3548746668984423e-10  3.1603396512523274e-10  1.1295685906046506e-10  3.8886136679883359e-11  1.3020513327600889e-11  4.2638126982946417e-12  1.3701675648788307e-12  4.3305422408633158e-13  1.3484129174576483e-13  4.1416674087002543e-14  1.2561973312414946e-14  3.7658314395689700e-15  1.1166678633357025e-15  3.2774211911924142e-16  9.5157203143188692e-17  2.6399608395970360e-17  0.0000000000000000e+00  6.0000000000000002e-05  5.2141261287035615e-05  4.6762213197411660e-05  4.1475559673243539e-05  3.6661423672926474e-05  3.2840992840413118e-05  3.0181525646777459e-05  2.8528311526956072e-05  2.7594645398538846e-05  2.7108595287092479e-05  2.6872561208270244e-05  2.6764500757766975e-05  2.6716979032966076e-05  2.6694404374987683e-05  2.6673234099224865e-05  2.6618819896609090e-05  2.6444362509216445e-05  2.5935859294714124e-05  2.4614639380010774e-05  1.9725941451703239e-05  1.3242352960636766e-05  8.7920605667033486e-06  5.4497642586118107e-06  3.1156495611763404e-06  1.6443940360386305e-06  8.0598938768146483e-07  3.6964766926194318e-07  1.5983822901256342e-07  6.5627113465219316e-08  2.5770730323789719e-08  9.9065831122802490e-09  5.0092223702891118e-09  4.0199767110410561e-09  2.0247183808913138e-09  8.4412004157813048e-10  3.1922638642083715e-10  1.1408838740106994e-10  3.9275106836831753e-11  1.3150984656283048e-11  4.3066740416723731e-12  1.3839922334760673e-12  4.3744036552131794e-13  1.3621210882680280e-13  4.1839211795276444e-14  1.2690556614954976e-14  3.8044970328878903e-15  1.1281660670395591e-15  3.3112599374886833e-16  9.6143713178786427e-17  2.6687380735123173e-17  0.0000000000000000e+00  6.0000000000000002e-05  5.2409846735159838e-05  4.7017187453610659e-05  4.1707387496815043e-05  3.6866404498195073e-05  3.3021375729158399e-05  3.0343037116981266e-05  2.8677233830104039e-05  2.7736066667293603e-05  2.7245944529864682e-05  2.7007865718157190e-05  2.6898844534185988e-05  2.6850897700709729e-05  2.6828149592172306e-05  2.6806930930572789e-05  2.6752558540444690e-05  2.6578234666358436e-05  2.6070004841703057e-05  2.4741482986032373e-05  2.0159532681473276e-05  1.3889205752615841e-05  9.2675165211372201e-06  5.7680296413659334e-06  3.3097636999871790e-06  1.7526397682206504e-06  8.6158669751659868e-07  3.9618416147649896e-07  1.7171267987296060e-07  7.0648972788509737e-08  2.7791466573029240e-08  1.0678230778043229e-08  5.1951296345651492e-09  4.0739972386457340e-09  2.0489853468280785e-09  8.5335295216449743e-10  3.2256527282559156e-10  1.1525888248316828e-10  3.9675333864977506e-11  1.3284899780701385e-11  4.3506215520545664e-12  1.3981631807290685e-12  4.4193677752940137e-13  1.3761778050899481e-13  4.2272652290740198e-14  1.2822511182321016e-14  3.8441928594890257e-15  1.1399754971166852e-15  3.3460285613214993e-16  9.7157707050609464e-17  2.6982619145206698e-17  0.0000000000000000e+00  6.0000000000000002e-05  5.2672773209154418e-05  4.7271129357570373e-05  4.1939702102404623e-05  3.7072271813534646e-05  3.3202678855655519e-05  3.0505396404155903e-05  2.8826920368856260e-05  2.7878187902773890e-05  2.7383952599535368e-05  2.7143805707868632e-05  2.7033811702207171e-05  2.6985433979472174e-05  2.6962509943244905e-05  2.6941242279188853e-05  2.6886913045263415e-05  2.6712732856625812e-05  2.6204856487545968e-05  2.4871621087063926e-05  2.0557914667018514e-05  1.4501638552787267e-05  9.7343688060844696e-06  6.0853307031132645e-06  3.5052184641470237e-06  1.8624886282983070e-06  9.1838516666067823e-07  4.2345470271155792e-07  1.8398102776689723e-07  7.5862934820455324e-08  2.9899128673063838e-08  1.1486866425445248e-08  5.4132120052454302e-09  4.1382952717022119e-09  2.0758460003765520e-09  8.6318511119450518e-10  3.2604752217304342e-10  1.1646667785642098e-10  4.0086121937711611e-11  1.3421996939582841e-11  4.3955622463451844e-12  1.4126485903194553e-12  4.4653286914841546e-13  1.3905485816901308e-13  4.2715893414694012e-14  1.2957490506167639e-14  3.8848115770489012e-15  1.1520633458602250e-15  3.3816280182344246e-16  9.8196221179388901e-17  2.7284406373852279e-17  0.0000000000000000e+00  6.0000000000000002e-05  5.2929676250788075e-05  4.7524038822510169e-05  4.2172510622444205e-05  3.7279029965850886e-05  3.3384902777591179e-05  3.0668602396228079e-05  2.8977370324703456e-05  2.8021009452128230e-05  2.7522621046522137e-05  2.7280383621178352e-05  2.7169405257517482e-05  2.7120591159926486e-05  2.7097488841168460e-05  2.7076171548726782e-05  2.7021886684245532e-05  2.6847860068444736e-05  2.6340413686192634e-05  2.5004802494777796e-05  2.0926046482769686e-05  1.5076303553657453e-05  1.0190679224033204e-05  6.4005279330201665e-06  3.7013836772793157e-06  1.9736101951253900e-06  9.7622276439035075e-07  4.5138531475237682e-07  1.9661179521647485e-07  8.1256481999041792e-08  3.2089068690621258e-08  1.2331198444478871e-08  5.6601956694893590e-09  4.2130190285478034e-09  2.1053203699302949e-09  8.7361477803922227e-10  3.2967046968811598e-10  1.1771041132829037e-10  4.0506911423778145e-11  1.3562067050619712e-11  4.4414221003367496e-12  1.4274231776527622e-12  4.5122023224411641e-13  1.4052060572594431e-13  4.3168061129663334e-14  1.3095219893272539e-14  3.9262681149338660e-15  1.1644036191608365e-15  3.4179798515689987e-16  9.9256908673388047e-17  2.7592026123383918e-17  0.0000000000000000e+00  6.0000000000000002e-05  5.3180353200798994e-05  4.7775927243281935e-05  4.2405823217941295e-05  3.7486684784465684e-05  3.3568049491439153e-05  3.0832655423031494e-05  2.9128584119312496e-05  2.8164532605934704e-05  2.7661952095020826e-05  2.7417602383469608e-05  2.7305628560654758e-05  2.7256372835458847e-05  2.7233089975077138e-05  2.7211722417590851e-05  2.7157483020379297e-05  2.6983619567381478e-05  2.6476677267197536e-05  2.5140786589438949e-05  2.1268210805777491e-05  1.5612954639309039e-05  1.0634831721833199e-05  6.7125994304029647e-06  3.8976951134229171e-06  2.0857191986856636e-06  1.0349677576057138e-06  4.7992054197653447e-07  2.0958375074691932e-07  8.6822276660023270e-08  3.4359055237247269e-08  1.3210859002968493e-08  5.9337199802865461e-09  4.2982991657607760e-09  2.1374220933146164e-09  8.8463935660431574e-10  3.3343174156045705e-10  1.1898895474677336e-10  4.0937250433868101e-11  1.3704943108088463e-11  4.4881422911372485e-12  1.4424669032514772e-12  4.5599221239710389e-13  1.4201285957184783e-13  4.3628464637362697e-14  1.3235482318309207e-14  3.9684952805681271e-15  1.1769757904122818e-15  3.4550221193935437e-16  1.0033791720504586e-16  2.7904922993508482e-17  0.0000000000000000e+00  6.0000000000000002e-05  5.3424732826392731e-05  4.8026816729725812e-05  4.2639653107581664e-05  3.7695243534364825e-05  3.3752122279149925e-05  3.0997557062040317e-05  2.9280563241090420e-05  2.8308759472400975e-05  2.7801948564037702e-05  2.7555465357220040e-05  2.7442485313810538e-05  2.7392782890467273e-05  2.7369317303573212e-05  2.7347898832632077e-05  2.7293705897148512e-05  2.7120014882793831e-05  2.6613648992815225e-05  2.5279346640244554e-05  2.1588091201060166e-05  1.6113053530670256e-05  1.1065524046992615e-05  7.0206368944159791e-06  4.0936421498850008e-06  2.1985614251951904e-06  1.0945071834352688e-06  5.0901576727538030e-07  2.2288148115487645e-07  9.2555878962007114e-08  3.6708199732667373e-08  1.4125977998423112e-08  6.2320994524051214e-09  4.3942486821810483e-09  2.1721581833217049e-09  8.9625522849008272e-10  3.3732913593716687e-10  1.2030135720030772e-10  4.1376771856467395e-11  1.3850491637843512e-11  4.5356761717655571e-12  1.4577639376574247e-12  4.6084356390087270e-13  1.4352991602220254e-13  4.4096560333332535e-14  1.3378107067345187e-14  4.0114402340253090e-15  1.1897637208504023e-15  3.4927061288331899e-16  1.0143779112651321e-16  2.8222670329061561e-17  0.0000000000000000e+00  6.0000000000000002e-05  5.3662850206920114e-05  4.8276739599166101e-05  4.2874016583192051e-05  3.7904714872653432e-05  3.3937125578884555e-05  3.1163309976822544e-05  2.9433310101649878e-05  2.8453692873359354e-05  2.7942613801913458e-05  2.7693976304739588e-05  2.7579979540969575e-05  2.7529825489860238e-05  2.7506175048277909e-05  2.7484705002989865e-05  2.7430559429880363e-05  2.7257049796639143e-05  2.6751331213715344e-05  2.5420271818870293e-05  2.1888850552414857e-05  1.6578942885044147e-05  1.1481781906344570e-05  7.3238488213734950e-06  4.2887643054837565e-06  2.3119078363501667e-06  1.1547415660946770e-06  5.3863357702117355e-07  2.3649327455478367e-07  9.8454653893269461e-08  3.9136443616621688e-08  1.5076989368044176e-08  6.5541632411777286e-09  4.5009639884538426e-09  2.2095287846277520e-09  9.0845761640058646e-10  3.4136052658754831e-10  1.2164679915109445e-10  4.1825174838791287e-11  1.3998605813088831e-11  4.5839868357036698e-12  1.4733018287518970e-12  4.6577017239532421e-13  1.4507044088064014e-13  4.4571922858457743e-14  1.3522960621502404e-14  4.0550616592453770e-15  1.2027547935792201e-15  3.5309938177138615e-16  1.0255539301136650e-16  2.8544944423018957e-17  0.0000000000000000e+00  6.0000000000000002e-05  5.3894826016036105e-05  4.8525738032156209e-05  4.3108933010597907e-05  3.8115108806977971e-05  3.4123064875377191e-05  3.1329917782274784e-05  2.9586827916659421e-05  2.8599336257937776e-05  2.8083951631697348e-05  2.7833139356651021e-05  2.7718115570595718e-05  2.7667505069362294e-05  2.7643667687422254e-05  2.7622145393891880e-05  2.7568047997484152e-05  2.7394728333723528e-05  2.6889726606066421e-05  2.5563368223012278e-05  2.2173205018355692e-05  1.7013361484203811e-05  1.1882964581420403e-05  7.6215662033627829e-06  4.4826525032583057e-06  2.4255531964276120e-06  1.2155830364165618e-06  5.6874230210329713e-07  2.5041022800871053e-07  1.0451730045077676e-07  4.1644335771897958e-08  1.6064554032126718e-08  6.8991454607841599e-09  4.6185264578728216e-09  2.2495269234507706e-09  9.2124047370063115e-10  3.4552378535171665e-10  1.2302455548480671e-10  4.2282209868442893e-11  1.4149199910953598e-11  4.6330451568317715e-12  1.4890708319817553e-12  4.7076883188533384e-13  1.4663339677331325e-13  4.5054221849812595e-14  1.3669939338734525e-14  4.0993274941628986e-15  1.2159392189707707e-15  3.5698556551458907e-16  1.0368984076457167e-16  2.8871503828479786e-17  0.0000000000000000e+00  6.0000000000000002e-05  5.4120849478380328e-05  4.8773863821987846e-05  4.3344424815541248e-05  3.8326436654891734e-05  3.4309946606263135e-05  3.1497384931739919e-05  2.9741120606548002e-05  2.8745693630536160e-05  2.8225966305217214e-05  2.7972958984886045e-05  2.7856898020225079e-05  2.7805826326311205e-05  2.7781799949307787e-05  2.7760224720262867e-05  2.7706176234362958e-05  2.7533054752859106e-05  2.7028837975091182e-05  2.5708459162027558e-05  2.2443490932175532e-05  1.7419165502584040e-05  1.2268755006370366e-05  7.9132485105682065e-06  4.6749527187716436e-06  2.5393171580154145e-06  1.2769553141460616e-06  5.9931573819230331e-07  2.6462601055849000e-07  1.1074370986416677e-07  4.4232961785066155e-08  1.7089541660616545e-08  7.2666099237215278e-09  4.7470040194683962e-09  2.2921382527973724e-09  9.3459639676309663e-10  3.4981672018807751e-10  1.2443396583854337e-10  4.2747666772963445e-11  1.4302204851703554e-11  4.6828282124344321e-12  1.5050633716887197e-12  4.7583706548738726e-13  1.4821798476081245e-13  4.5543203268140649e-14  1.3818963578789971e-14  4.1442131092212955e-15  1.2293094774930511e-15  3.6092689580992063e-16  1.0484045720800769e-16  2.9202172777300905e-17  0.0000000000000000e+00  6.0000000000000002e-05  5.4341164395998801e-05  4.9021178168622824e-05  4.3580517454718356e-05  3.8538711003324124e-05  3.4497778081335912e-05  3.1665716621967465e-05  2.9896192713343665e-05  2.8892769490351203e-05  2.8368662464089898e-05  2.8113439979201133e-05  2.7996331782451137e-05  2.7944794210694957e-05  2.7920576805503450e-05  2.7898947940024402e-05  2.7844949022322732e-05  2.7672033538535937e-05  2.7168668112353583e-05  2.5855384902858046e-05  2.2701723796890653e-05  1.7799173564582415e-05  1.2639136666276331e-05  8.1984888010573406e-06  4.8653706916397916e-06  2.6530466706832006e-06  1.3387947183159370e-06  6.3033351529649398e-07  2.7913698397893584e-07  1.1713500166582422e-07  4.6903954512810217e-08  1.8153042619295458e-08  7.6563988599947702e-09  4.8864525111883757e-09  2.3373407968250947e-09  9.4851655736391883e-10  3.5423702620972269e-10  1.2587441087633742e-10  4.3221365084995251e-11  1.4457564612266152e-11  4.7333180148962129e-12  1.5212736079418173e-12  4.8097298133243546e-13  1.4982359742059576e-13  4.6038674400015800e-14  1.3969972986353771e-14  4.1896998455617915e-15  1.2428598727313978e-15  3.6492165414059557e-16  1.0600672966211615e-16  2.9536827899187401e-17  0.0000000000000000e+00  6.0000000000000002e-05  5.4556057737974711e-05  4.9267751482932774e-05  4.3817239372235559e-05  3.8751945667470162e-05  3.4686567412218332e-05  3.1834918712586509e-05  3.0052049330593111e-05  2.9040568780195793e-05  2.8512045106242760e-05  2.8254587426406506e-05  2.8136422011887515e-05  2.8084413916229353e-05  2.8060003463674764e-05  2.8038320246994164e-05  2.7984371482339100e-05  2.7811669392822499e-05  2.7309219695986716e-05  2.6004002030212543e-05  2.2949649472290818e-05  1.8156085803854558e-05  1.2994362284637685e-05  8.4770173604550708e-06  5.0536769575875009e-06  2.7666190817841793e-06  1.4010517529028708e-06  6.6178183517166671e-07  2.9394252593214626e-07  1.2369365987748797e-07  4.9659550148303265e-08  1.9256396080081490e-08  8.0685987774597424e-09  5.0369166120530859e-09  2.3851046981502362e-09  9.6299065288905526e-10  3.5878224756966930e-10  1.2734529343090482e-10  4.3703146326267403e-11  1.4615233345938540e-11  4.7845004921430738e-12  1.5376970882631968e-12  4.8617515672937892e-13  1.5144978114326879e-13  4.6540491809977231e-14  1.4122922703481879e-14  4.2357738416756635e-15  1.2565861727502035e-15  3.6896856349662786e-16  1.0718827753564995e-16  2.9875387592695843e-17  0.0000000000000000e+00  6.0000000000000002e-05  5.4765850369101221e-05  4.9513663178519721e-05  4.4054621941920459e-05  3.8966155648550058e-05  3.4876323450367431e-05  3.2004997657346967e-05  3.0208696043857326e-05  2.9189096842771623e-05  2.8656119556783742e-05  2.8396406691656284e-05  2.8277174112777310e-05  2.8224690871319954e-05  2.8200085359966987e-05  2.8178347063315373e-05  2.8124448966071904e-05  2.7951967227289344e-05  2.7450495224809866e-05  2.6154182539191991e-05  2.3188788132043811e-05  1.8492446823087897e-05  1.3334919086121127e-05  8.7487036445004473e-06  5.2397117953383301e-06  2.8799455790184852e-06  1.4636930219113325e-06  6.9365442730152879e-07  3.0904547476450719e-07  1.3042372957029111e-07  5.2502671739757113e-08  2.0401227578631481e-08  8.5035188658859665e-09  5.1984302371366643e-09  2.4353919721105146e-09  9.7800687253370646e-10  3.6344974843840490e-10  1.2884602363246117e-10  4.4192867848815947e-11  1.4775173072545948e-11  4.8363646685097613e-12  1.5543304676511063e-12  4.9144254504089171e-13  1.5309620582813762e-13  4.7048551660226679e-14  1.4277780327474592e-14  4.2824250913449129e-15  1.2704853222565141e-15  3.7306670150286657e-16  1.0838482632919355e-16  3.0217803526319269e-17  0.0000000000000000e+00  6.0000000000000002e-05  5.4970889562459668e-05  4.9759001436794703e-05  4.4292699396002690e-05  3.9181357090002854e-05  3.5067055731694753e-05  3.2175960444869309e-05  3.0366138879729016e-05  2.9338359382891653e-05  2.8800891442276006e-05  2.8538903401274415e-05  2.8418593726985522e-05  2.8365630729787850e-05  2.8340828150884501e-05  2.8319034031365888e-05  2.8265187047042739e-05  2.8092932154811715e-05  2.7592496978817823e-05  2.6305812749871564e-05  2.3420471778550592e-05  1.8810634385571517e-05  1.3661494311252600e-05  9.0135565695504264e-06  5.4233898828889238e-06  2.9929747817330192e-06  1.5267033405218758e-06  7.2595364448693404e-07  3.2445265422513915e-07  1.3733105368414458e-07  5.5437031189889052e-08  2.1589492920898542e-08  8.9616787839214167e-09  5.3710163205888571e-09  2.4881562721845844e-09  9.9355187801231916e-10  3.6823669162978900e-10  1.3037600730915769e-10  4.4690397940630443e-11  1.4937351829422810e-11  4.8889020070677751e-12  1.5711712835312129e-12  4.9677440080578370e-13  1.5476264051845980e-13  4.7562781929682547e-14  1.4434523466461438e-14  4.3296466869514528e-15  1.2845552114854412e-15  3.7721543069088835e-16  1.0959618677345422e-16  3.0564053849641577e-17  0.0000000000000000e+00  6.0000000000000002e-05  5.5171542998600813e-05  5.0003862937092431e-05  4.4531508740720433e-05  3.9397567231777325e-05  3.5258774426385182e-05  3.2347814547042508e-05  3.0524384261687981e-05  2.9488362434426044e-05  2.8946366667651713e-05  2.8682083426694431e-05  2.8560686722167163e-05  2.8507239361268118e-05  2.8482237704626703e-05  2.8460387005112349e-05  2.8406591511412021e-05  2.8234569481152384e-05  2.7735226999867049e-05  2.6458792110591965e-05  2.3645876159981641e-05  1.9112862909110936e-05  1.3974943440173314e-05  9.2717233900976655e-06  5.6047045801257751e-06  3.1056963778210626e-06  1.5900879705517249e-06  7.5869165661530130e-07  3.4017545684962672e-07  1.4442354014302958e-07  5.8467245408433853e-08  2.2823527120414787e-08  9.4438036142504644e-09  5.5546859377291982e-09  2.5433426710430087e-09  1.0096107975692703e-09  3.7314002368566400e-10  1.3193463707616760e-10  4.5195611958406247e-11  1.5101742194611457e-11  4.9421058819731611e-12  1.5882177748611211e-12  5.0217021951156768e-13  1.5644893380176719e-13  4.8083136155807841e-14  1.4593137773937904e-14  4.3774342112564368e-15  1.2987944904982259e-15  3.8141434249153713e-16  1.1082223807577902e-16  3.0914137776333495e-17  0.0000000000000000e+00  6.0000000000000002e-05  5.5368194002454803e-05  5.0248352547936412e-05  4.4771089659432882e-05  3.9614804362468854e-05  3.5451490292748387e-05  3.2520567873539811e-05  3.0683438971415144e-05  2.9639112330972125e-05  2.9092551395145670e-05  2.8825952869175934e-05  2.8703459179949438e-05  2.8649522841214577e-05  2.862432009185534