<?xml version="1.0"?>
<VTKFile type="UnstructuredGrid"  version="0.1"  >
<UnstructuredGrid>
<Piece  NumberOfPoints="2601" NumberOfCells="5000">
<Points>
<DataArray  type="Float64"  NumberOfComponents="3"  format="ascii">-1 0 0  -0.96 0 0  -0.92 0 0  -0.88 0 0  -0.84 0 0  -0.8 0 0  -0.76 0 0  -0.72 0 0  -0.6799999999999999 0 0  -0.64 0 0  -0.6 0 0  -0.5600000000000001 0 0  -0.52 0 0  -0.48 0 0  -0.4399999999999999 0 0  -0.4 0 0  -0.36 0 0  -0.32 0 0  -0.28 0 0  -0.24 0 0  -0.2 0 0  -0.16 0 0  -0.12 0 0  -0.07999999999999996 0 0  -0.04000000000000004 0 0  0 0 0  0.04000000000000004 0 0  0.08000000000000007 0 0  0.1200000000000001 0 0  0.1599999999999999 0 0  0.2 0 0  0.24 0 0  0.28 0 0  0.3200000000000001 0 0  0.3600000000000001 0 0  0.3999999999999999 0 0  0.4399999999999999 0 0  0.48 0 0  0.52 0 0  0.5600000000000001 0 0  0.6000000000000001 0 0  0.6399999999999999 0 0  0.6799999999999999 0 0  0.72 0 0  0.76 0 0  0.8 0 0  0.8400000000000001 0 0  0.8799999999999999 0 0  0.9199999999999999 0 0  0.96 0 0  1 0 0  -1 0.016 0  -0.96 0.016 0  -0.92 0.016 0  -0.88 0.016 0  -0.84 0.016 0  -0.8 0.016 0  -0.76 0.016 0  -0.72 0.016 0  -0.6799999999999999 0.016 0  -0.64 0.016 0  -0.6 0.016 0  -0.5600000000000001 0.016 0  -0.52 0.016 0  -0.48 0.016 0  -0.4399999999999999 0.016 0  -0.4 0.016 0  -0.36 0.016 0  -0.32 0.016 0  -0.28 0.016 0  -0.24 0.016 0  -0.2 0.016 0  -0.16 0.016 0  -0.12 0.016 0  -0.07999999999999996 0.016 0  -0.04000000000000004 0.016 0  0 0.016 0  0.04000000000000004 0.016 0  0.08000000000000007 0.016 0  0.1200000000000001 0.016 0  0.1599999999999999 0.016 0  0.2 0.016 0  0.24 0.016 0  0.28 0.016 0  0.3200000000000001 0.016 0  0.3600000000000001 0.016 0  0.3999999999999999 0.016 0  0.4399999999999999 0.016 0  0.48 0.016 0  0.52 0.016 0  0.5600000000000001 0.016 0  0.6000000000000001 0.016 0  0.6399999999999999 0.016 0  0.6799999999999999 0.016 0  0.72 0.016 0  0.76 0.016 0  0.8 0.016 0  0.8400000000000001 0.016 0  0.8799999999999999 0.016 0  0.9199999999999999 0.016 0  0.96 0.016 0  1 0.016 0  -1 0.032 0  -0.96 0.032 0  -0.92 0.032 0  -0.88 0.032 0  -0.84 0.032 0  -0.8 0.032 0  -0.76 0.032 0  -0.72 0.032 0  -0.6799999999999999 0.032 0  -0.64 0.032 0  -0.6 0.032 0  -0.5600000000000001 0.032 0  -0.52 0.032 0  -0.48 0.032 0  -0.4399999999999999 0.032 0  -0.4 0.032 0  -0.36 0.032 0  -0.32 0.032 0  -0.28 0.032 0  -0.24 0.032 0  -0.2 0.032 0  -0.16 0.032 0  -0.12 0.032 0  -0.07999999999999996 0.032 0  -0.04000000000000004 0.032 0  0 0.032 0  0.04000000000000004 0.032 0  0.08000000000000007 0.032 0  0.1200000000000001 0.032 0  0.1599999999999999 0.032 0  0.2 0.032 0  0.24 0.032 0  0.28 0.032 0  0.3200000000000001 0.032 0  0.3600000000000001 0.032 0  0.3999999999999999 0.032 0  0.4399999999999999 0.032 0  0.48 0.032 0  0.52 0.032 0  0.5600000000000001 0.032 0  0.6000000000000001 0.032 0  0.6399999999999999 0.032 0  0.6799999999999999 0.032 0  0.72 0.032 0  0.76 0.032 0  0.8 0.032 0  0.8400000000000001 0.032 0  0.8799999999999999 0.032 0  0.9199999999999999 0.032 0  0.96 0.032 0  1 0.032 0  -1 0.04800000000000001 0  -0.96 0.04800000000000001 0  -0.92 0.04800000000000001 0  -0.88 0.04800000000000001 0  -0.84 0.04800000000000001 0  -0.8 0.04800000000000001 0  -0.76 0.04800000000000001 0  -0.72 0.04800000000000001 0  -0.6799999999999999 0.04800000000000001 0  -0.64 0.04800000000000001 0  -0.6 0.04800000000000001 0  -0.5600000000000001 0.04800000000000001 0  -0.52 0.04800000000000001 0  -0.48 0.04800000000000001 0  -0.4399999999999999 0.04800000000000001 0  -0.4 0.04800000000000001 0  -0.36 0.04800000000000001 0  -0.32 0.04800000000000001 0  -0.28 0.04800000000000001 0  -0.24 0.04800000000000001 0  -0.2 0.04800000000000001 0  -0.16 0.04800000000000001 0  -0.12 0.04800000000000001 0  -0.07999999999999996 0.04800000000000001 0  -0.04000000000000004 0.04800000000000001 0  0 0.04800000000000001 0  0.04000000000000004 0.04800000000000001 0  0.08000000000000007 0.04800000000000001 0  0.1200000000000001 0.04800000000000001 0  0.1599999999999999 0.04800000000000001 0  0.2 0.04800000000000001 0  0.24 0.04800000000000001 0  0.28 0.04800000000000001 0  0.3200000000000001 0.04800000000000001 0  0.3600000000000001 0.04800000000000001 0  0.3999999999999999 0.04800000000000001 0  0.4399999999999999 0.04800000000000001 0  0.48 0.04800000000000001 0  0.52 0.04800000000000001 0  0.5600000000000001 0.04800000000000001 0  0.6000000000000001 0.04800000000000001 0  0.6399999999999999 0.04800000000000001 0  0.6799999999999999 0.04800000000000001 0  0.72 0.04800000000000001 0  0.76 0.04800000000000001 0  0.8 0.04800000000000001 0  0.8400000000000001 0.04800000000000001 0  0.8799999999999999 0.04800000000000001 0  0.9199999999999999 0.04800000000000001 0  0.96 0.04800000000000001 0  1 0.04800000000000001 0  -1 0.064 0  -0.96 0.064 0  -0.92 0.064 0  -0.88 0.064 0  -0.84 0.064 0  -0.8 0.064 0  -0.76 0.064 0  -0.72 0.064 0  -0.6799999999999999 0.064 0  -0.64 0.064 0  -0.6 0.064 0  -0.5600000000000001 0.064 0  -0.52 0.064 0  -0.48 0.064 0  -0.4399999999999999 0.064 0  -0.4 0.064 0  -0.36 0.064 0  -0.32 0.064 0  -0.28 0.064 0  -0.24 0.064 0  -0.2 0.064 0  -0.16 0.064 0  -0.12 0.064 0  -0.07999999999999996 0.064 0  -0.04000000000000004 0.064 0  0 0.064 0  0.04000000000000004 0.064 0  0.08000000000000007 0.064 0  0.1200000000000001 0.064 0  0.1599999999999999 0.064 0  0.2 0.064 0  0.24 0.064 0  0.28 0.064 0  0.3200000000000001 0.064 0  0.3600000000000001 0.064 0  0.3999999999999999 0.064 0  0.4399999999999999 0.064 0  0.48 0.064 0  0.52 0.064 0  0.5600000000000001 0.064 0  0.6000000000000001 0.064 0  0.6399999999999999 0.064 0  0.6799999999999999 0.064 0  0.72 0.064 0  0.76 0.064 0  0.8 0.064 0  0.8400000000000001 0.064 0  0.8799999999999999 0.064 0  0.9199999999999999 0.064 0  0.96 0.064 0  1 0.064 0  -1 0.08 0  -0.96 0.08 0  -0.92 0.08 0  -0.88 0.08 0  -0.84 0.08 0  -0.8 0.08 0  -0.76 0.08 0  -0.72 0.08 0  -0.6799999999999999 0.08 0  -0.64 0.08 0  -0.6 0.08 0  -0.5600000000000001 0.08 0  -0.52 0.08 0  -0.48 0.08 0  -0.4399999999999999 0.08 0  -0.4 0.08 0  -0.36 0.08 0  -0.32 0.08 0  -0.28 0.08 0  -0.24 0.08 0  -0.2 0.08 0  -0.16 0.08 0  -0.12 0.08 0  -0.07999999999999996 0.08 0  -0.04000000000000004 0.08 0  0 0.08 0  0.04000000000000004 0.08 0  0.08000000000000007 0.08 0  0.1200000000000001 0.08 0  0.1599999999999999 0.08 0  0.2 0.08 0  0.24 0.08 0  0.28 0.08 0  0.3200000000000001 0.08 0  0.3600000000000001 0.08 0  0.3999999999999999 0.08 0  0.4399999999999999 0.08 0  0.48 0.08 0  0.52 0.08 0  0.5600000000000001 0.08 0  0.6000000000000001 0.08 0  0.6399999999999999 0.08 0  0.6799999999999999 0.08 0  0.72 0.08 0  0.76 0.08 0  0.8 0.08 0  0.8400000000000001 0.08 0  0.8799999999999999 0.08 0  0.9199999999999999 0.08 0  0.96 0.08 0  1 0.08 0  -1 0.09600000000000002 0  -0.96 0.09600000000000002 0  -0.92 0.09600000000000002 0  -0.88 0.09600000000000002 0  -0.84 0.09600000000000002 0  -0.8 0.09600000000000002 0  -0.76 0.09600000000000002 0  -0.72 0.09600000000000002 0  -0.6799999999999999 0.09600000000000002 0  -0.64 0.09600000000000002 0  -0.6 0.09600000000000002 0  -0.5600000000000001 0.09600000000000002 0  -0.52 0.09600000000000002 0  -0.48 0.09600000000000002 0  -0.4399999999999999 0.09600000000000002 0  -0.4 0.09600000000000002 0  -0.36 0.09600000000000002 0  -0.32 0.09600000000000002 0  -0.28 0.09600000000000002 0  -0.24 0.09600000000000002 0  -0.2 0.09600000000000002 0  -0.16 0.09600000000000002 0  -0.12 0.09600000000000002 0  -0.07999999999999996 0.09600000000000002 0  -0.04000000000000004 0.09600000000000002 0  0 0.09600000000000002 0  0.04000000000000004 0.09600000000000002 0  0.08000000000000007 0.09600000000000002 0  0.1200000000000001 0.09600000000000002 0  0.1599999999999999 0.09600000000000002 0  0.2 0.09600000000000002 0  0.24 0.09600000000000002 0  0.28 0.09600000000000002 0  0.3200000000000001 0.09600000000000002 0  0.3600000000000001 0.09600000000000002 0  0.3999999999999999 0.09600000000000002 0  0.4399999999999999 0.09600000000000002 0  0.48 0.09600000000000002 0  0.52 0.09600000000000002 0  0.5600000000000001 0.09600000000000002 0  0.6000000000000001 0.09600000000000002 0  0.6399999999999999 0.09600000000000002 0  0.6799999999999999 0.09600000000000002 0  0.72 0.09600000000000002 0  0.76 0.09600000000000002 0  0.8 0.09600000000000002 0  0.8400000000000001 0.09600000000000002 0  0.8799999999999999 0.09600000000000002 0  0.9199999999999999 0.09600000000000002 0  0.96 0.09600000000000002 0  1 0.09600000000000002 0  -1 0.112 0  -0.96 0.112 0  -0.92 0.112 0  -0.88 0.112 0  -0.84 0.112 0  -0.8 0.112 0  -0.76 0.112 0  -0.72 0.112 0  -0.6799999999999999 0.112 0  -0.64 0.112 0  -0.6 0.112 0  -0.5600000000000001 0.112 0  -0.52 0.112 0  -0.48 0.112 0  -0.4399999999999999 0.112 0  -0.4 0.112 0  -0.36 0.112 0  -0.32 0.112 0  -0.28 0.112 0  -0.24 0.112 0  -0.2 0.112 0  -0.16 0.112 0  -0.12 0.112 0  -0.07999999999999996 0.112 0  -0.04000000000000004 0.112 0  0 0.112 0  0.04000000000000004 0.112 0  0.08000000000000007 0.112 0  0.1200000000000001 0.112 0  0.1599999999999999 0.112 0  0.2 0.112 0  0.24 0.112 0  0.28 0.112 0  0.3200000000000001 0.112 0  0.3600000000000001 0.112 0  0.3999999999999999 0.112 0  0.4399999999999999 0.112 0  0.48 0.112 0  0.52 0.112 0  0.5600000000000001 0.112 0  0.6000000000000001 0.112 0  0.6399999999999999 0.112 0  0.6799999999999999 0.112 0  0.72 0.112 0  0.76 0.112 0  0.8 0.112 0  0.8400000000000001 0.112 0  0.8799999999999999 0.112 0  0.9199999999999999 0.112 0  0.96 0.112 0  1 0.112 0  -1 0.128 0  -0.96 0.128 0  -0.92 0.128 0  -0.88 0.128 0  -0.84 0.128 0  -0.8 0.128 0  -0.76 0.128 0  -0.72 0.128 0  -0.6799999999999999 0.128 0  -0.64 0.128 0  -0.6 0.128 0  -0.5600000000000001 0.128 0  -0.52 0.128 0  -0.48 0.128 0  -0.4399999999999999 0.128 0  -0.4 0.128 0  -0.36 0.128 0  -0.32 0.128 0  -0.28 0.128 0  -0.24 0.128 0  -0.2 0.128 0  -0.16 0.128 0  -0.12 0.128 0  -0.07999999999999996 0.128 0  -0.04000000000000004 0.128 0  0 0.128 0  0.04000000000000004 0.128 0  0.08000000000000007 0.128 0  0.1200000000000001 0.128 0  0.1599
[...]
<PointData  Scalars="f_100"> 
<DataArray  type="Float64"  Name="f_100"  format="ascii">6.0000000000000002e-05  4.9093177979573346e-05  4.1341784275275964e-05  3.5138187940196813e-05  3.0977888114587655e-05  2.8603019475322729e-05  2.7410774009418743e-05  2.6869904689518608e-05  2.6643611988644774e-05  2.6554959730137525e-05  2.6522062318081161e-05  2.6510373143321389e-05  2.6506212722183333e-05  2.6503769187511255e-05  2.6496873619085739e-05  2.6463134069031102e-05  2.6309734892511765e-05  2.5720115103444829e-05  2.3932218913685333e-05  1.7314817686181826e-05  9.5908810637947536e-06  5.1693598317993794e-06  2.4916167583816985e-06  1.0827694479749051e-06  4.3122405784780122e-07  1.5981064270380590e-07  5.5811597052204339e-08  1.8554615448680750e-08  5.9197111710498664e-09  1.8251277288334227e-09  5.5414089019573652e-10  2.4127363142714301e-10  1.6919660597807823e-10  7.2102269216497891e-11  2.5474012610906451e-11  8.1591848161216261e-12  2.4741140046600833e-12  7.2510347301102846e-13  2.0757946196767167e-13  5.8386527522866113e-14  1.6191740117999330e-14  4.4369911386641888e-15  1.2032458182498998e-15  3.2327312979338170e-16  8.6120016651725547e-17  2.2764466648689641e-17  5.9742215034329575e-18  1.5573394891408106e-18  4.0308472523514701e-19  1.0059171567555712e-19  0.0000000000000000e+00  6.0000000000000002e-05  4.9372600290199074e-05  4.1583196926877513e-05  3.5339468183697779e-05  3.1148277253105268e-05  2.8754157564644423e-05  2.7551669706284231e-05  2.7005963219732091e-05  2.6777587238848970e-05  2.6688101055343871e-05  2.6654889089071157e-05  2.6643087031493824e-05  2.6638888233271075e-05  2.6636435034842884e-05  2.6629553013435797e-05  2.6595894875414254e-05  2.6442801700777648e-05  2.5853973293714885e-05  2.4053471872893378e-05  1.7828386849993722e-05  1.0203762634197227e-05  5.5371822203219356e-06  2.6805452248853910e-06  1.1686871510139055e-06  4.6658231733755044e-07  1.7323318420099462e-07  6.0584302485832574e-08  2.0163260153285157e-08  6.4384551673802920e-09  1.9863188116453843e-09  6.0247755970333422e-10  2.4744488983380700e-10  1.7080354255415118e-10  7.2857783642505769e-11  2.5738352143146967e-11  8.2430884756499350e-12  2.4994472144760568e-12  7.3251798028657807e-13  2.0970238434905725e-13  5.8984175251717315e-14  1.6357678496361815e-14  4.4825222761331873e-15  1.2156092829549363e-15  3.2659894374732292e-16  8.7007053535899633e-17  2.2999196226068056e-17  6.0358850524450723e-18  1.5734291092569726e-18  4.0725735999036089e-19  1.0167782897607452e-19  0.0000000000000000e+00  6.0000000000000002e-05  4.9647346433295951e-05  4.1823325169363701e-05  3.5540931750157954e-05  3.1319163441917948e-05  2.8905767736381794e-05  2.7692957253795780e-05  2.7142354186908279e-05  2.6911862321327117e-05  2.6821526893343703e-05  2.6787993875442831e-05  2.6776076384945880e-05  2.6771838300474368e-05  2.6769375301741515e-05  2.6762507571372420e-05  2.6728933855271343e-05  2.6576156439501802e-05  2.5988175048712256e-05  2.4177903259471538e-05  1.8292118023886519e-05  1.0809196691595139e-05  5.9031229134203027e-06  2.8716135908744448e-06  1.2568183581463648e-06  5.0330472301038970e-07  1.8732812904594859e-07  6.5645750946563789e-08  2.1884423575054369e-08  6.9979572561671630e-09  2.1614501784509300e-09  6.5528900089523505e-10  2.5632288398884794e-10  1.7290927277871323e-10  7.3727090599870580e-11  2.6026598513552524e-11  8.3322267026305115e-12  2.5260166987042562e-12  7.4024477442595323e-13  2.1190787488069019e-13  5.9604206585060249e-14  1.6529747608387379e-14  4.5297347827415578e-15  1.2284322007421358e-15  3.3004954668863057e-16  8.7927741771692458e-17  2.3242932793495128e-17  6.0999415638475628e-18  1.5901499599599076e-18  4.1159538884372545e-19  1.0280534189383085e-19  0.0000000000000000e+00  6.0000000000000002e-05  4.9916602788481579e-05  4.2062141208577639e-05  3.5742564758891187e-05  3.1490531713429693e-05  2.9057837938981863e-05  2.7834629506638716e-05  2.7279074528748167e-05  2.7046436690411589e-05  2.6955237995506022e-05  2.6921378019845307e-05  2.6909342791351893e-05  2.6905064599263453e-05  2.6902591659661237e-05  2.6895738813775599e-05  2.6862252015831551e-05  2.6709799131182995e-05  2.6122713686297450e-05  2.4305263235725212e-05  1.8712860880999218e-05  1.1389347430249686e-05  6.2638481369294393e-06  3.0632538209896391e-06  1.3463243045817488e-06  5.4097691668990230e-07  2.0191046429522510e-07  7.0920573062214719e-08  2.3689689625474320e-08  7.5881710309161514e-09  2.3471571694902098e-09  7.1154522423758248e-10  2.6745124412805739e-10  1.7552201217757218e-10  7.4711358747562244e-11  2.6338586464133918e-11  8.4264228605250752e-12  2.5537469056169731e-12  7.4825776084256815e-13  2.1418771630609510e-13  6.0244160080636061e-14  1.6707232818812182e-14  4.5784256461417528e-15  1.2416578460024313e-15  3.3360929939797374e-16  8.8877818461680485e-17  2.3494525942520057e-17  6.1660833558358062e-18  1.6074204163198481e-18  4.1607728465205044e-19  1.0396838320643958e-19  0.0000000000000000e+00  6.0000000000000002e-05  5.0179803714748192e-05  4.2299632655824385e-05  3.5944359668449117e-05  3.1662372404327722e-05  2.9210360515050406e-05  2.7976682666923890e-05  2.7416123705419118e-05  2.7181311819166099e-05  2.7089236872159373e-05  2.7055044505092060e-05  2.7042889429124128e-05  2.7038570377948595e-05  2.7036087352929652e-05  2.7029249861038433e-05  2.6995852051455929e-05  2.6843731625818848e-05  2.6257586687043591e-05  2.4435301964709668e-05  1.9096592838315183e-05  1.1935492079199748e-05  6.6169423426093510e-06  3.2542253011615274e-06  1.4365930816581505e-06  5.7932228884335372e-07  2.1686577612469404e-07  7.6365046227461795e-08  2.5563441777941674e-08  8.2038282682944782e-09  2.5417478784800452e-09  7.7075470466143065e-10  2.8051402427710183e-10  1.7865009077538544e-10  7.5811589609419759e-11  2.6674166596036320e-11  8.5255321311485599e-12  2.5825770419078169e-12  7.5653609335260060e-13  2.1653536632229963e-13  6.0902079541327166e-14  1.6889566778152775e-14  4.6284338031839423e-15  1.2552412357134226e-15  3.3726580448935626e-16  8.9853905329116500e-17  2.3753064215579630e-17  6.2340667074405300e-18  1.6251758341210392e-18  4.2068600201254017e-19  1.0516233853199000e-19  0.0000000000000000e+00  6.0000000000000002e-05  5.0436586501307342e-05  4.2535800840538224e-05  3.6146314958619456e-05  3.1834680655617109e-05  2.9363331741327425e-05  2.8119115975320161e-05  2.7553503531044916e-05  2.7316491121545695e-05  2.7223527762823515e-05  2.7188997946748043e-05  2.7176721069410109e-05  2.7172360463123946e-05  2.7169867204259988e-05  2.7163045433831346e-05  2.7129738329017300e-05  2.6977957558136664e-05  2.6392794994022748e-05  2.4567776993900196e-05  1.9448481853375886e-05  1.2444241638392517e-05  6.9604618510186045e-06  3.4434867346209464e-06  1.5271395628767239e-06  6.1813701661487475e-07  2.3211580260640889e-07  8.1951337653521754e-08  2.7496404988067678e-08  8.8420057959330003e-09  2.7443456733483224e-09  8.3268398765002315e-10  2.9528732224605683e-10  1.8230143378451417e-10  7.7028594241596251e-11  2.7033190062528110e-11  8.6294332301588591e-12  2.6124578321862357e-12  7.6506308289124905e-13  2.1894561688124666e-13  6.1576412218888255e-14  1.7076299866654056e-14  4.6796317336736033e-15  1.2691467766152766e-15  3.4100925653001967e-16  9.0853331241080243e-17  2.4017827123073967e-17  6.3036990027239771e-18  1.6433651336783631e-18  4.2540807500871159e-19  1.0638359682845520e-19  0.0000000000000000e+00  6.0000000000000002e-05  5.0686753976462260e-05  4.2770659682429375e-05  3.6348434860048841e-05  3.2007455992748057e-05  2.9516751445608493e-05  2.8261931453797033e-05  2.7691218031800889e-05  2.7451979884541131e-05  2.7358116607452950e-05  2.7323244582501786e-05  2.7310844073077767e-05  2.7306441259433925e-05  2.7303937614557849e-05  2.7297131849002138e-05  2.7263916871082143e-05  2.7112482308525052e-05  2.6528342447562651e-05  2.4702458374245764e-05  1.9772971880808816e-05  1.2915267364520549e-05  7.2928011073714449e-06  3.6301382222735757e-06  1.6175538950715016e-06  6.5725664591559741e-07  2.4760093582293848e-07  8.7659606204117026e-08  2.9482447356585120e-08  9.5009331209590382e-09  2.9544728313357983e-09  8.9722372761028431e-10  3.1161032692175803e-10  1.8648334726053081e-10  7.8362972163060471e-11  2.7415495949468365e-11  8.7380216873880117e-12  2.6433489073663505e-12  7.7382532072004742e-13  2.2141432092291510e-13  6.2265927253130486e-14  1.7267076531259668e-14  4.7319187340335855e-15  1.2833463834421331e-15  3.4483192247493195e-16  9.1873990368056341e-17  2.4288246806942083e-17  6.3748284623825238e-18  1.6619480719080350e-18  4.3023289688688877e-19  1.0762934770983829e-19  0.0000000000000000e+00  6.0000000000000002e-05  5.0930243524301678e-05  4.3004234946854801e-05  3.6550729118278307e-05  3.2180701970371039e-05  2.9670622685638971e-05  2.8405133689375342e-05  2.7829273324493139e-05  2.7587785207237269e-05  2.7493011017296598e-05  2.7457792257725754e-05  2.7445266382434878e-05  2.7440820743536978e-05  2.7438306556905461e-05  2.7431517010346324e-05  2.7398395336168527e-05  2.7247312965615028e-05  2.6664235332678438e-05  2.4839132021663012e-05  2.0073874153430101e-05  1.3349937836086544e-05  7.6126719333914238e-06  3.8133960685322733e-06  1.7074760913248527e-06  6.9653941056915494e-07  2.6327152739041653e-07  9.3474111120689370e-08  3.1517018608909516e-08  1.0179415300795905e-08  3.1718506299681900e-09  9.6432559802137442e-10  3.2936731084744285e-10  1.9120247422785294e-10  7.9815091517554455e-11  2.7820900894428306e-11  8.8512044076317390e-12  2.6752167020618395e-12  7.8281197432570149e-13  2.2393817325079170e-13  6.2969650332911528e-14  1.7461616341973274e-14  4.7852155353578432e-15  1.2978179739276243e-15  3.4872772628851132e-16  9.2914228824614377e-17  2.4563877411375369e-17  6.4473359419807392e-18  1.6808930639814446e-18  4.3515214497358966e-19  1.0889741942930541e-19  0.0000000000000000e+00  6.0000000000000002e-05  5.1167101461386235e-05  4.3236563752190245e-05  3.6753212782058322e-05  3.2354425868947355e-05  2.9824951477685019e-05  2.8548729650230791e-05  2.7967677510653108e-05  2.7723915944310471e-05  2.7628220244261943e-05  2.7592650406761407e-05  2.7579997507496933e-05  2.7575508452184381e-05  2.7572983564647279e-05  2.7566210394049079e-05  2.7533182995500872e-05  2.7382458288909622e-05  2.6800482019483058e-05  2.4977601732824353e-05  2.0354455343140518e-05  1.3750506786563351e-05  7.9191093552664870e-06  3.9925831576039899e-06  1.7965846196592132e-06  7.3585840405063786e-07  2.7908375917556665e-07  9.9381362363035910e-08  3.3596410399322893e-08  1.0876560980903417e-08  3.3963057177020668e-09  1.0339734622090479e-09  3.4847605690383205e-10  1.9646484084135129e-10  8.1385069934264474e-11  2.8249190579575978e-11  8.9688952805197815e-12  2.7080327641563824e-12  7.9201422238691311e-13  2.2651453488338718e-13  6.3686811361768334e-14  1.7659698827708154e-14  4.8394599973335957e-15  1.3125442651655678e-15  3.5269191686210663e-16  9.3972754071832408e-17  2.4844370611000824e-17  6.5211283808056639e-18  1.7001754438166419e-18  4.4015932153974114e-19  1.1018614940600039e-19  0.0000000000000000e+00  6.0000000000000002e-05  5.1397461895326121e-05  4.3467694232799742e-05  3.6955906008128954e-05  3.2528638432674617e-05  2.9979746564692986e-05  2.8692728527093133e-05  2.8106440582122555e-05  2.7860382651978264e-05  2.7763755147906424e-05  2.7727830029577992e-05  2.7715048506677094e-05  2.7710515464371552e-05  2.7707979713538761e-05  2.7701223028659734e-05  2.7668290705807933e-05  2.7517928670223774e-05  2.6937092679380554e-05  2.5117690185010127e-05  2.0617518276686148e-05  1.4119633990520523e-05  8.2114717573205384e-06  4.1671266330196476e-06  1.8845923904513621e-06  7.7509840926625025e-07  2.9499787899275540e-07  1.0536931219179084e-07  3.5717430075401443e-08  1.1591662206049376e-08  3.6277288330873873e-09  1.1061711186929551e-09  3.6888024405215496e-10  2.0227594335527430e-10  8.3072755832189990e-11  2.8700112801779016e-11  9.0910116512234617e-12  2.7417723983452350e-12  8.0142480176274640e-13  2.2914129232075995e-13  6.4416802549425730e-14  1.7861151338892774e-14  4.8946036631190168e-15  1.3275118109943618e-15  3.5672080252200405e-16  9.5048562509790675e-17  2.5129456058226965e-17  6.5961335690112096e-18  1.7197760749617633e-18  4.4524938722194422e-19  1.1149428079362740e-19  0.0000000000000000e+00  6.0000000000000002e-05  5.1621529329492916e-05  4.3697685287944492e-05  3.7158833876406442e-05  3.2703353640038343e-05  3.0135019215769623e-05  2.8837141594196012e-05  2.8245574334877798e-05  2.7997197534816056e-05  2.7899628159373802e-05  2.7863343663549465e-05  2.7850431961824724e-05  2.7845854377555895e-05  2.7843307597955690e-05  2.7836567469513083e-05  2.7803730877817721e-05  2.7653736092988867e-05  2.7074079062195506e-05  2.5259239180846705e-05  2.0865473525992002e-05  1.4460107363745034e-05  8.4894273601533093e-06  4.3365586090651582e-06  1.9712465251343974e-06  8.1415515684923633e-07  3.1097766115149537e-07  1.1142707985091827e-07  3.7877283729878904e-08  1.2324150284736304e-08  3.8660595282628098e-09  1.1809381103205039e-09  3.9054438356508862e-10  2.0864084521811042e-10  8.4877710068166279e-11  2.9173371879264326e-11  9.2174714988432388e-12  2.7764135804852139e-12  8.1103764474589496e-13  2.3181674485450397e-13  6.5159144862050271e-14  1.8065839333973400e-14  4.9506090031638249e-15  1.3427102321409433e-15  3.6081153876959290e-16  9.6140881605697810e-17  2.5418925760206317e-17  6.6722959675598655e-18  1.7396802412312418e-18  4.5041846832450922e-19  1.1282087988621721e-19  0.0000000000000000e+00  6.0000000000000002e-05  5.1839564397479344e-05  4.3926606367358240e-05  3.7362026210856747e-05  3.2878588499838406e-05  3.0290783050218268e-05  2.8981982085110581e-05  2.8385092288476943e-05  2.8134374392185997e-05  2.8035853241755873e-05  2.7999205350176382e-05  2.7986161947586505e-05  2.7981539277969660e-05  2.7978981301194890e-05  2.7972257767559873e-05  2.7939517440196150e-05  2.7789894088711604e-05  2.7211454321556620e-05  2.5402109341907309e-05  2.1100401653543207e-05  1.4774686392657748e-05  8.7529286447224046e-06  4.5005175838846517e-06  2.0563299215485637e-06  8.5293582755524965e-07  3.2699050176345468e-07  1.1754495170340784e-07  4.0073566681908532e-08  1.3073590419948632e-08  4.1112840619201589e-09  1.2583095238603699e-09  4.1345047131040472e-10  2.1556426490586765e-10  8.6799187917017961e-11  2.9668624199939855e-11  9.3481911978444770e-12  2.8119360917330188e-12  8.2084758907778967e-13  2.3453951440526584e-13  6.5913461174119053e-14  1.8273658606951769e-14  5.0074472102870233e-15  1.3581316005110907e-15  3.6496195857090921e-16  9.7249123636212250e-17  2.5712621594601393e-17  6.7495733688492080e-18  1.7598767606732260e-18  4.5566362308854828e-19  1.1416527019452831e-19  0.0000000000000000e+00  6.0000000000000002e-05  5.2051872211017041e-05  4.4154537259612082e-05  3.7565517402367956e-05  3.3054362866817566e-05  3.0447053880606016e-05  2.9127265079682011e-05  2.8525009609035368e-05  2.8271928563296106e-05  2.8172445846495730e-05  2.8135430596649829e-05  2.8122253995106607e-05  2.8117585705088385e-05  2.8115016359928539e-05  2.8108309432612192e-05  2.8075665798756691e-05  2.7926417690067087e-05  2.7349232877815873e-05  2.5546179408936697e-05  2.1324106652516572e-05  1.5066018474462407e-05  9.0021792001198712e-06  4.6587492905662642e-06  2.1396635350206350e-06  8.9136016982007135e-07  3.4300784355230906e-07  1.2371452637777838e-07  4.2304310696169344e-08  1.3839696804351373e-08  4.3634402329114673e-09  1.3383378468833169e-09  4.3759584130029121e-10  2.2305064209649650e-10  8.8836121426909120e-11  3.0185474753941756e-11  9.4830837610840738e-12  2.8483208312499132e-12  8.3085014664177386e-13  2.3730847345936617e-13  6.6679454793271758e-14  1.8484529069160823e-14  5.0650964357889367e-15  1.3737699467302968e-15  3.6917043665144674e-16  9.8372848708228350e-17  2.6010425332088008e-17  6.8279342285391064e-18  1.7803572777975407e-18  4.6098265501757840e-19  1.1552697985705702e-19  0.0000000000000000e+00  6.0000000000000002e-05  5.2258792888982030e-05  4.4381567860891455e-05  3.7769346230738887e-05  3.3230699272082315e-05  3.0603849570360749e-05  2.9273007399016508e-05  2.8665343034063432e-05  2.8409876870133106e-05  2.8309422865563196e-05  2.8272036332216379e-05  2.8258725050121165e-05  2.8254010610345814e-05  2.8251429722904238e-05  2.8244739391049420e-05  2.8212192790838517e-05  2.8063323380259452e-05  2.7487430309542420e-05  2.5691345269301558e-05  2.1538161471960632e-05  1.5336598828243835e-05  9.2375974800747621e-06  4.8111063833623297e-06  2.2211087990608873e-06  9.2936189923774236e-07  3.5900577230285991e-07  1.2992893898635699e-07  4.4568062797539375e-08  1.4622359243461061e-08  4.6226261524925444e-09  1.4210959777084424e-09  4.6299189063988558e-10  2.3110417414126226e-10  9.0987102232254359e-11  3.0723474523527573e-11  9.6220574817820854e-12  2.8855492741527364e-12  8.4104131949836306e-13  2.4012268754827872e-13  6.7456892292655672e-14  1.8698389775368302e-14  5.1235403783431779e-15  1.3896208662097637e-15  3.7343578096137224e-16  9.9511735190330292e-17  2.6312250660318546e-17  6.9073555331315064e-18  1.8011156980542220e-18  4.6637396374577055e-19  1.1690569971406484e-19  0.0000000000000000e+00  6.0000000000000002e-05  5.2460693905458168e-05  4.4607797910282566e-05  3.7973555683537735e-05  3.3407622764391123e-05  3.0761189902242327e-05  2.9419227506066050e-05  2.8806110797853549e-05  2.8548237557699764e-05  2.8446802579229724e-05  2.8409040859356441e-05  2.8395593425537986e-05  2.8390832310214775e-05  2.8388239704011038e-05  2.8381565938066641e-05  2.8349116634812440e-05  2.8200629038407979e-05  2.7626063266185753e-05  2.5837518802662906e-05  2.1743946636130128e-05  1.5588756218310354e-05  9.4597809777573741e-06  4.9575467927874220e-06  2.3005698949824696e-06  9.6689020508884587e-07  3.7496570350115298e-07  1.3618313118896500e-07  4.6863983290980401e-08  1.5421676987978326e-08  4.8890115288997082e-09  1.5066809772292649e-09  4.8966345741970908e-10  2.3972881748241167e-10  9.3250364941047663e-11  3.1282118628228698e-11  9.7650149070426838e-12  2.9236030477594520e-12  8.5141745413355982e-13  2.4298136941395797e-13  6.8245589795993172e-14  1.8915194945821320e-14  5.1827671549811495e-15  1.4056812039439623e-15  3.7775714584192696e-16  1.0066555606085878e-16  2.6618036805301126e-17  6.9878210950238994e-18  1.8221477357833424e-18  4.7183642584712495e-19  1.1830124990446255e-19  0.0000000000000000e+00  6.0000000000000002e-05  5.2657963953765470e-05  4.4833336683805282e-05  3.8178192770097817e-05  3.3585160759122483e-05  3.0919096454730237e-05  2.9565945409851227e-05  2.8947332556394643e-05  2.8687030231142983e-05  2.8584604599352329e-05  2.8546463799835950e-05  2.8532878748624503e-05  2.8528070433800433e-05  2.8525465929858422e-05  2.8518808684580933e-05  2.8486456874728057e-05  2.8338353880817830e-05  2.7765149395865700e-05  2.5984626612469449e-05  2.1942682959957726e-05  1.5824653768907821e-05  9.6694731967575991e-06  5.0981308700069371e-06  2.3779957442095527e-06  1.0039112750795988e-06  3.9087511761482526e-07  1.4247415052365795e-07  4.9191956973261656e-08  1.6237997736527764e-08  5.1628508085531030e-09  1.5952183869719117e-09  5.1764870293138185e-10  2.4892825029689027e-10  9.5623771248642480e-11  3.1860845143107368e-11  9.9118520878740613e-12  2.9624636043047161e-12  8.6197512656271456e-13  2.4588384256329345e-13  6.9045402029264368e-14  1.9134910785050883e-14  5.2427683975244260e-15  1.4219488021867761e-15  3.8213396251452740e-16  1.0183415997693437e-16  2.6927743426954431e-17  7.0693201884369663e-18  1.8434505526251338e-18  4.7736929950888349e-19  1.1971355327030671e-19  0.0000000000000000e+00  6.0000000000000002e-05  5.2851008072715503e-05  4.5058302643782175e-05  3.8383308329336741e-05  3.3763342892348550e-05  3.1077592483946854e-05  2.9713182571769167e-05  2.9089029311032268e-05  2.8826275789488701e-05  2.8722849808145905e-05  2.8684326035733251e-05  2.8670601902957348e-05  2.8665745865118045e-05  2.866312928204067