<?xml version="1.0"?>
<VTKFile type="UnstructuredGrid"  version="0.1"  >
<UnstructuredGrid>
<Piece  NumberOfPoints="2601" NumberOfCells="5000">
<Points>
<DataArray  type="Float64"  NumberOfComponents="3"  format="ascii">-1 0 0  -0.96 0 0  -0.92 0 0  -0.88 0 0  -0.84 0 0  -0.8 0 0  -0.76 0 0  -0.72 0 0  -0.6799999999999999 0 0  -0.64 0 0  -0.6 0 0  -0.5600000000000001 0 0  -0.52 0 0  -0.48 0 0  -0.4399999999999999 0 0  -0.4 0 0  -0.36 0 0  -0.32 0 0  -0.28 0 0  -0.24 0 0  -0.2 0 0  -0.16 0 0  -0.12 0 0  -0.07999999999999996 0 0  -0.04000000000000004 0 0  0 0 0  0.04000000000000004 0 0  0.08000000000000007 0 0  0.1200000000000001 0 0  0.1599999999999999 0 0  0.2 0 0  0.24 0 0  0.28 0 0  0.3200000000000001 0 0  0.3600000000000001 0 0  0.3999999999999999 0 0  0.4399999999999999 0 0  0.48 0 0  0.52 0 0  0.5600000000000001 0 0  0.6000000000000001 0 0  0.6399999999999999 0 0  0.6799999999999999 0 0  0.72 0 0  0.76 0 0  0.8 0 0  0.8400000000000001 0 0  0.8799999999999999 0 0  0.9199999999999999 0 0  0.96 0 0  1 0 0  -1 0.016 0  -0.96 0.016 0  -0.92 0.016 0  -0.88 0.016 0  -0.84 0.016 0  -0.8 0.016 0  -0.76 0.016 0  -0.72 0.016 0  -0.6799999999999999 0.016 0  -0.64 0.016 0  -0.6 0.016 0  -0.5600000000000001 0.016 0  -0.52 0.016 0  -0.48 0.016 0  -0.4399999999999999 0.016 0  -0.4 0.016 0  -0.36 0.016 0  -0.32 0.016 0  -0.28 0.016 0  -0.24 0.016 0  -0.2 0.016 0  -0.16 0.016 0  -0.12 0.016 0  -0.07999999999999996 0.016 0  -0.04000000000000004 0.016 0  0 0.016 0  0.04000000000000004 0.016 0  0.08000000000000007 0.016 0  0.1200000000000001 0.016 0  0.1599999999999999 0.016 0  0.2 0.016 0  0.24 0.016 0  0.28 0.016 0  0.3200000000000001 0.016 0  0.3600000000000001 0.016 0  0.3999999999999999 0.016 0  0.4399999999999999 0.016 0  0.48 0.016 0  0.52 0.016 0  0.5600000000000001 0.016 0  0.6000000000000001 0.016 0  0.6399999999999999 0.016 0  0.6799999999999999 0.016 0  0.72 0.016 0  0.76 0.016 0  0.8 0.016 0  0.8400000000000001 0.016 0  0.8799999999999999 0.016 0  0.9199999999999999 0.016 0  0.96 0.016 0  1 0.016 0  -1 0.032 0  -0.96 0.032 0  -0.92 0.032 0  -0.88 0.032 0  -0.84 0.032 0  -0.8 0.032 0  -0.76 0.032 0  -0.72 0.032 0  -0.6799999999999999 0.032 0  -0.64 0.032 0  -0.6 0.032 0  -0.5600000000000001 0.032 0  -0.52 0.032 0  -0.48 0.032 0  -0.4399999999999999 0.032 0  -0.4 0.032 0  -0.36 0.032 0  -0.32 0.032 0  -0.28 0.032 0  -0.24 0.032 0  -0.2 0.032 0  -0.16 0.032 0  -0.12 0.032 0  -0.07999999999999996 0.032 0  -0.04000000000000004 0.032 0  0 0.032 0  0.04000000000000004 0.032 0  0.08000000000000007 0.032 0  0.1200000000000001 0.032 0  0.1599999999999999 0.032 0  0.2 0.032 0  0.24 0.032 0  0.28 0.032 0  0.3200000000000001 0.032 0  0.3600000000000001 0.032 0  0.3999999999999999 0.032 0  0.4399999999999999 0.032 0  0.48 0.032 0  0.52 0.032 0  0.5600000000000001 0.032 0  0.6000000000000001 0.032 0  0.6399999999999999 0.032 0  0.6799999999999999 0.032 0  0.72 0.032 0  0.76 0.032 0  0.8 0.032 0  0.8400000000000001 0.032 0  0.8799999999999999 0.032 0  0.9199999999999999 0.032 0  0.96 0.032 0  1 0.032 0  -1 0.04800000000000001 0  -0.96 0.04800000000000001 0  -0.92 0.04800000000000001 0  -0.88 0.04800000000000001 0  -0.84 0.04800000000000001 0  -0.8 0.04800000000000001 0  -0.76 0.04800000000000001 0  -0.72 0.04800000000000001 0  -0.6799999999999999 0.04800000000000001 0  -0.64 0.04800000000000001 0  -0.6 0.04800000000000001 0  -0.5600000000000001 0.04800000000000001 0  -0.52 0.04800000000000001 0  -0.48 0.04800000000000001 0  -0.4399999999999999 0.04800000000000001 0  -0.4 0.04800000000000001 0  -0.36 0.04800000000000001 0  -0.32 0.04800000000000001 0  -0.28 0.04800000000000001 0  -0.24 0.04800000000000001 0  -0.2 0.04800000000000001 0  -0.16 0.04800000000000001 0  -0.12 0.04800000000000001 0  -0.07999999999999996 0.04800000000000001 0  -0.04000000000000004 0.04800000000000001 0  0 0.04800000000000001 0  0.04000000000000004 0.04800000000000001 0  0.08000000000000007 0.04800000000000001 0  0.1200000000000001 0.04800000000000001 0  0.1599999999999999 0.04800000000000001 0  0.2 0.04800000000000001 0  0.24 0.04800000000000001 0  0.28 0.04800000000000001 0  0.3200000000000001 0.04800000000000001 0  0.3600000000000001 0.04800000000000001 0  0.3999999999999999 0.04800000000000001 0  0.4399999999999999 0.04800000000000001 0  0.48 0.04800000000000001 0  0.52 0.04800000000000001 0  0.5600000000000001 0.04800000000000001 0  0.6000000000000001 0.04800000000000001 0  0.6399999999999999 0.04800000000000001 0  0.6799999999999999 0.04800000000000001 0  0.72 0.04800000000000001 0  0.76 0.04800000000000001 0  0.8 0.04800000000000001 0  0.8400000000000001 0.04800000000000001 0  0.8799999999999999 0.04800000000000001 0  0.9199999999999999 0.04800000000000001 0  0.96 0.04800000000000001 0  1 0.04800000000000001 0  -1 0.064 0  -0.96 0.064 0  -0.92 0.064 0  -0.88 0.064 0  -0.84 0.064 0  -0.8 0.064 0  -0.76 0.064 0  -0.72 0.064 0  -0.6799999999999999 0.064 0  -0.64 0.064 0  -0.6 0.064 0  -0.5600000000000001 0.064 0  -0.52 0.064 0  -0.48 0.064 0  -0.4399999999999999 0.064 0  -0.4 0.064 0  -0.36 0.064 0  -0.32 0.064 0  -0.28 0.064 0  -0.24 0.064 0  -0.2 0.064 0  -0.16 0.064 0  -0.12 0.064 0  -0.07999999999999996 0.064 0  -0.04000000000000004 0.064 0  0 0.064 0  0.04000000000000004 0.064 0  0.08000000000000007 0.064 0  0.1200000000000001 0.064 0  0.1599999999999999 0.064 0  0.2 0.064 0  0.24 0.064 0  0.28 0.064 0  0.3200000000000001 0.064 0  0.3600000000000001 0.064 0  0.3999999999999999 0.064 0  0.4399999999999999 0.064 0  0.48 0.064 0  0.52 0.064 0  0.5600000000000001 0.064 0  0.6000000000000001 0.064 0  0.6399999999999999 0.064 0  0.6799999999999999 0.064 0  0.72 0.064 0  0.76 0.064 0  0.8 0.064 0  0.8400000000000001 0.064 0  0.8799999999999999 0.064 0  0.9199999999999999 0.064 0  0.96 0.064 0  1 0.064 0  -1 0.08 0  -0.96 0.08 0  -0.92 0.08 0  -0.88 0.08 0  -0.84 0.08 0  -0.8 0.08 0  -0.76 0.08 0  -0.72 0.08 0  -0.6799999999999999 0.08 0  -0.64 0.08 0  -0.6 0.08 0  -0.5600000000000001 0.08 0  -0.52 0.08 0  -0.48 0.08 0  -0.4399999999999999 0.08 0  -0.4 0.08 0  -0.36 0.08 0  -0.32 0.08 0  -0.28 0.08 0  -0.24 0.08 0  -0.2 0.08 0  -0.16 0.08 0  -0.12 0.08 0  -0.07999999999999996 0.08 0  -0.04000000000000004 0.08 0  0 0.08 0  0.04000000000000004 0.08 0  0.08000000000000007 0.08 0  0.1200000000000001 0.08 0  0.1599999999999999 0.08 0  0.2 0.08 0  0.24 0.08 0  0.28 0.08 0  0.3200000000000001 0.08 0  0.3600000000000001 0.08 0  0.3999999999999999 0.08 0  0.4399999999999999 0.08 0  0.48 0.08 0  0.52 0.08 0  0.5600000000000001 0.08 0  0.6000000000000001 0.08 0  0.6399999999999999 0.08 0  0.6799999999999999 0.08 0  0.72 0.08 0  0.76 0.08 0  0.8 0.08 0  0.8400000000000001 0.08 0  0.8799999999999999 0.08 0  0.9199999999999999 0.08 0  0.96 0.08 0  1 0.08 0  -1 0.09600000000000002 0  -0.96 0.09600000000000002 0  -0.92 0.09600000000000002 0  -0.88 0.09600000000000002 0  -0.84 0.09600000000000002 0  -0.8 0.09600000000000002 0  -0.76 0.09600000000000002 0  -0.72 0.09600000000000002 0  -0.6799999999999999 0.09600000000000002 0  -0.64 0.09600000000000002 0  -0.6 0.09600000000000002 0  -0.5600000000000001 0.09600000000000002 0  -0.52 0.09600000000000002 0  -0.48 0.09600000000000002 0  -0.4399999999999999 0.09600000000000002 0  -0.4 0.09600000000000002 0  -0.36 0.09600000000000002 0  -0.32 0.09600000000000002 0  -0.28 0.09600000000000002 0  -0.24 0.09600000000000002 0  -0.2 0.09600000000000002 0  -0.16 0.09600000000000002 0  -0.12 0.09600000000000002 0  -0.07999999999999996 0.09600000000000002 0  -0.04000000000000004 0.09600000000000002 0  0 0.09600000000000002 0  0.04000000000000004 0.09600000000000002 0  0.08000000000000007 0.09600000000000002 0  0.1200000000000001 0.09600000000000002 0  0.1599999999999999 0.09600000000000002 0  0.2 0.09600000000000002 0  0.24 0.09600000000000002 0  0.28 0.09600000000000002 0  0.3200000000000001 0.09600000000000002 0  0.3600000000000001 0.09600000000000002 0  0.3999999999999999 0.09600000000000002 0  0.4399999999999999 0.09600000000000002 0  0.48 0.09600000000000002 0  0.52 0.09600000000000002 0  0.5600000000000001 0.09600000000000002 0  0.6000000000000001 0.09600000000000002 0  0.6399999999999999 0.09600000000000002 0  0.6799999999999999 0.09600000000000002 0  0.72 0.09600000000000002 0  0.76 0.09600000000000002 0  0.8 0.09600000000000002 0  0.8400000000000001 0.09600000000000002 0  0.8799999999999999 0.09600000000000002 0  0.9199999999999999 0.09600000000000002 0  0.96 0.09600000000000002 0  1 0.09600000000000002 0  -1 0.112 0  -0.96 0.112 0  -0.92 0.112 0  -0.88 0.112 0  -0.84 0.112 0  -0.8 0.112 0  -0.76 0.112 0  -0.72 0.112 0  -0.6799999999999999 0.112 0  -0.64 0.112 0  -0.6 0.112 0  -0.5600000000000001 0.112 0  -0.52 0.112 0  -0.48 0.112 0  -0.4399999999999999 0.112 0  -0.4 0.112 0  -0.36 0.112 0  -0.32 0.112 0  -0.28 0.112 0  -0.24 0.112 0  -0.2 0.112 0  -0.16 0.112 0  -0.12 0.112 0  -0.07999999999999996 0.112 0  -0.04000000000000004 0.112 0  0 0.112 0  0.04000000000000004 0.112 0  0.08000000000000007 0.112 0  0.1200000000000001 0.112 0  0.1599999999999999 0.112 0  0.2 0.112 0  0.24 0.112 0  0.28 0.112 0  0.3200000000000001 0.112 0  0.3600000000000001 0.112 0  0.3999999999999999 0.112 0  0.4399999999999999 0.112 0  0.48 0.112 0  0.52 0.112 0  0.5600000000000001 0.112 0  0.6000000000000001 0.112 0  0.6399999999999999 0.112 0  0.6799999999999999 0.112 0  0.72 0.112 0  0.76 0.112 0  0.8 0.112 0  0.8400000000000001 0.112 0  0.8799999999999999 0.112 0  0.9199999999999999 0.112 0  0.96 0.112 0  1 0.112 0  -1 0.128 0  -0.96 0.128 0  -0.92 0.128 0  -0.88 0.128 0  -0.84 0.128 0  -0.8 0.128 0  -0.76 0.128 0  -0.72 0.128 0  -0.6799999999999999 0.128 0  -0.64 0.128 0  -0.6 0.128 0  -0.5600000000000001 0.128 0  -0.52 0.128 0  -0.48 0.128 0  -0.4399999999999999 0.128 0  -0.4 0.128 0  -0.36 0.128 0  -0.32 0.128 0  -0.28 0.128 0  -0.24 0.128 0  -0.2 0.128 0  -0.16 0.128 0  -0.12 0.128 0  -0.07999999999999996 0.128 0  -0.04000000000000004 0.128 0  0 0.128 0  0.04000000000000004 0.128 0  0.08000000000000007 0.128 0  0.1200000000000001 0.128 0  0.1599
[...]
<PointData  Scalars="f_100"> 
<DataArray  type="Float64"  Name="f_100"  format="ascii">6.0000000000000002e-05  5.3539194607538821e-05  5.0954659664278077e-05  4.8520367091939721e-05  4.5689382376339592e-05  4.2484269553175369e-05  3.9154449327765945e-05  3.5998611819268645e-05  3.3255254489312964e-05  3.1051952379574250e-05  2.9405446264254920e-05  2.8252933706971478e-05  2.7491927115944249e-05  2.7012402703148475e-05  2.6714132948924881e-05  2.6508783706735542e-05  2.6308503841449044e-05  2.5992672878559659e-05  2.5289117620876351e-05  2.0537352912981882e-05  1.4595734562102544e-05  1.1399273575823083e-05  8.8384719359502572e-06  6.6624972613987944e-06  4.8335329325024676e-06  3.3567916682657935e-06  2.2261904120414279e-06  1.4092922316605697e-06  8.5278589633887543e-07  4.9663971557179087e-07  2.9248810422684728e-07  2.5186958757616386e-07  2.6952302010476314e-07  1.8156581871973017e-07  1.0321048260630942e-07  5.3728220444029256e-08  2.6488074565372730e-08  1.2551187055898673e-08  5.7582980034058103e-09  2.5685582279281180e-09  1.1169875659586561e-09  4.7449784015748739e-10  1.9721504120631024e-10  8.0307523977757783e-11  3.2077809357880909e-11  1.2582191338392349e-11  4.8510764558882577e-12  1.8398587437612692e-12  6.8513048224904193e-13  2.3778072914994942e-13  0.0000000000000000e+00  6.0000000000000002e-05  5.3814589319513602e-05  5.1220165338435381e-05  4.8776282885742773e-05  4.5933718947327733e-05  4.2713972189642039e-05  3.9367283340478810e-05  3.6193999981741059e-05  3.3434335297862011e-05  3.1217115077209490e-05  2.9559659839185525e-05  2.8399142515781471e-05  2.7632658785538002e-05  2.7149605526261769e-05  2.6849181356858313e-05  2.6642565968967134e-05  2.6441519519870113e-05  2.6125217517407984e-05  2.5408697292951767e-05  2.1077919330222410e-05  1.5348729201559594e-05  1.2008108303765630e-05  9.3223863903106111e-06  7.0386880468811024e-06  5.1158674132752144e-06  3.5597681713757129e-06  2.3654115205175317e-06  1.5002676349460085e-06  9.0943228330420684e-07  5.3023939649699838e-07  3.1123659089536294e-07  2.5601431306484307e-07  2.7139756223196972e-07  1.8302086316303615e-07  1.0406065885212285e-07  5.4178658878493407e-08  2.6713451579427840e-08  1.2659401385762878e-08  5.8085445228895050e-09  2.5912181969229033e-09  1.1269410115748998e-09  4.7876514075309424e-10  1.9900370138005518e-10  8.1041564567751191e-11  3.2373121104404552e-11  1.2698793515050804e-11  4.8963091247564301e-12  1.8571152696517783e-12  6.9161622238765061e-13  2.4022574874808198e-13  0.0000000000000000e+00  6.0000000000000002e-05  5.4085886630536603e-05  5.1484813879872361e-05  4.9032798949479018e-05  4.6179089588965349e-05  4.2944809591489830e-05  3.9581237516573757e-05  3.6390450263467748e-05  3.3614404456267943e-05  3.1383190766006765e-05  2.9714718064096560e-05  2.8546139417875445e-05  2.7774135308749267e-05  2.7287522438742412e-05  2.6984923501361474e-05  2.6777030672910190e-05  2.6575224534041353e-05  2.6258576044706965e-05  2.5532465113830627e-05  2.1572081468940158e-05  1.6094641625189559e-05  1.2614477602840506e-05  9.8093057025484521e-06  7.4199762515315238e-06  5.4037189750015852e-06  3.7678012845362576e-06  2.5088061079177041e-06  1.5944159009615211e-06  9.6832546282738490e-07  5.6532779693672076e-07  3.3085387615856738e-07  2.6163899442864103e-07  2.7374108685670478e-07  1.8461889636612934e-07  1.0495285033134495e-07  5.4642544051359739e-08  2.6943717627350478e-08  1.2769601134961288e-08  5.8596522528097787e-09  2.6142614067499403e-09  1.1370650839687519e-09  4.8310748156260223e-10  2.0082477841796401e-10  8.1789333002654609e-11  3.2674129929726272e-11  1.2817713714373309e-11  4.9424672136168991e-12  1.8747346592924075e-12  6.9824172026371209e-13  2.4271705292154135e-13  0.0000000000000000e+00  6.0000000000000002e-05  5.4352287220241010e-05  5.1748568897585202e-05  4.9289914318771094e-05  4.6425502632380138e-05  4.3176791421756175e-05  3.9796319677946112e-05  3.6587967673631153e-05  3.3795464434901301e-05  3.1550180257764893e-05  2.9870621069865194e-05  2.8693924620158281e-05  2.7916357395169325e-05  2.7426154789495699e-05  2.7121361323546451e-05  2.6912180209425632e-05  2.6709621323059457e-05  2.6392742043080103e-05  2.5660156115920970e-05  2.2026102179911842e-05  1.6814654950125660e-05  1.3215038255240094e-05  1.0297782700968411e-05  7.8055859034119219e-06  5.6966503409928479e-06  3.9806353142349251e-06  2.6562178913991413e-06  1.6916372756705719e-06  1.0294004817230377e-06  6.0186531280859614e-07  3.5134792989809160e-07  2.6856440546113914e-07  2.7656152435085307e-07  1.8636210372267434e-07  1.0588738357349200e-07  5.5119758182934628e-08  2.7178734126727497e-08  1.2881695874072043e-08  5.9115711835380893e-09  2.6376623492063873e-09  1.1473474266162687e-09  4.8751910483453889e-10  2.0267567445495915e-10  8.2549689796909250e-11  3.2980348630259675e-11  1.2938748456524771e-11  4.9894675671561895e-12  1.8926835961772022e-12  7.0499377550439616e-13  2.4524890623507971e-13  0.0000000000000000e+00  6.0000000000000002e-05  5.4613230881804608e-05  5.2011409579024139e-05  4.9547631177077047e-05  4.6672966695569381e-05  4.3409926978288418e-05  4.0012537426050001e-05  3.6786557385858229e-05  3.3977518226453622e-05  3.1718085099778119e-05  3.0027369773576192e-05  2.8842499044217723e-05  2.8059326334246653e-05  2.7565504359749438e-05  2.7258497066870658e-05  2.7048017168393944e-05  2.6844712442035785e-05  2.6527711643072940e-05  2.5791502720157587e-05  2.2445547151617060e-05  1.7499692949179584e-05  1.3807360477718586e-05  1.0786541753960763e-05  8.1948184563513797e-06  5.9942824201377315e-06  4.1980711624352190e-06  2.8075471916456132e-06  1.7918848465165427e-06  1.0926372404009813e-06  6.3984610477713510e-07  3.7274006224104017e-07  2.7666007670668970e-07  2.7986570713781339e-07  1.8825217764599811e-07  1.0686447341300589e-07  5.5610194683910127e-08  2.7418387498264715e-08  1.2995612757433924e-08  5.9642612526791415e-09  2.6614006333434554e-09  1.1577781707937981e-09  4.9199541403715050e-10  2.0455431607608507e-10  8.3321725666483909e-11  3.3291388491629468e-11  1.3061735421796072e-11  5.0372438618744506e-12  1.9109355121806846e-12  7.1186186511618297e-13  2.4781685430940349e-13  0.0000000000000000e+00  6.0000000000000002e-05  5.4868352971224335e-05  5.2273328699151684e-05  4.9805954806998346e-05  4.6921490799947281e-05  4.3644225318010307e-05  4.0229898207327570e-05  3.6986224724645991e-05  3.4160569264223473e-05  3.1886907452167628e-05  3.0184965744390088e-05  2.8991864203133802e-05  2.8203043895025277e-05  2.7705573288591617e-05  2.7396333225646654e-05  2.7184544304611612e-05  2.6980500530375609e-05  2.6663482767030832e-05  2.5926242010710068e-05  2.2835291665282930e-05  1.8146344071798649e-05  1.4389480314992939e-05  1.1274432101728126e-05  8.5870348842999276e-06  6.2962786157163046e-06  4.4199483393456487e-06  2.9627309659864762e-06  1.8951446907527696e-06  1.1580429490278898e-06  6.7928452226581267e-07  3.9505820443999724e-07  2.8583137357485698e-07  2.8365925889096229e-07  1.9029032304236020e-07  1.0788421995884692e-07  5.6113750436803431e-08  2.7662583210157828e-08  1.3111292950245892e-08  6.0176904208578028e-09  2.6854600124486223e-09  1.1683494651093558e-09  4.9653275442047738e-10  2.0645905508884680e-10  8.4104717886217916e-11  3.3606940573722190e-11  1.3186545610916133e-11  5.0857433927430197e-12  1.9294692963979086e-12  7.1883763068641479e-13  2.5041747547489559e-13  0.0000000000000000e+00  6.0000000000000002e-05  5.5117448266363700e-05  5.2534331235835583e-05  5.0064893553074428e-05  4.7171084466008819e-05  4.3879695358766238e-05  4.0448409366376148e-05  3.7186975153427672e-05  3.4344621354246899e-05  3.2056649986589074e-05  3.0343411093113280e-05  2.9142022100273299e-05  2.8347512243920453e-05  2.7846364011995819e-05  2.7534872502937576e-05  2.7321764509987694e-05  2.7116988287470716e-05  2.6800054524967187e-05  2.6064120844255128e-05  2.3199567841968311e-05  1.8754419537585045e-05  1.4959775541272795e-05  1.1760419453107457e-05  8.9816514622370788e-06  6.6023392010482289e-06  4.6461368623100780e-06  3.1217329765227441e-06  2.0014257552050675e-06  1.2256430693325973e-06  7.2020808053020682e-07  4.1833400569429500e-07  2.9601041230052906e-07  2.8794657925676894e-07  1.9247726031743806e-07  1.0894660601411268e-07  5.6630319455551489e-08  2.7911240914213686e-08  1.3228688717713736e-08  6.0718331063456890e-09  2.7098275933372413e-09  1.1790550935261859e-09  5.0112823499452096e-10  2.0838858808174264e-10  8.4898094933544857e-11  3.3926760558672057e-11  1.3313077001643837e-11  5.1349244746181821e-12  1.9482682515530315e-12  7.2591446410128337e-13  2.5304817962335152e-13  0.0000000000000000e+00  6.0000000000000002e-05  5.5360441025249996e-05  5.2794433411329371e-05  5.0324458789096864e-05  4.7421757790826256e-05  4.4116345962467925e-05  4.0668078189043847e-05  3.7388814264092644e-05  3.4529678618922294e-05  3.2227315802590026e-05  3.0502708381281704e-05  2.9292975146145812e-05  2.8492733877286843e-05  2.7987879212891641e-05  2.7674117776128849e-05  2.7459680790887269e-05  2.7254178454126287e-05  2.6937426738330832e-05  2.6204899259576815e-05  2.3542029856217897e-05  1.9325497258939034e-05  1.5516955511582175e-05  1.2243591071120830e-05  9.3781423634957943e-06  6.9122012244568606e-06  4.8765347190601962e-06  3.2845396557425142e-06  2.1107551598847461e-06  1.2954769381660633e-06  7.6265401764228113e-07  4.4260185455829959e-07  3.0714962255468408e-07  2.9273088188669269e-07  1.9481322631762442e-07  1.1005149497639602e-07  5.7159787710318122e-08  2.8164290481955718e-08  1.3347761055525498e-08  6.1266689120524264e-09  2.7344931938931447e-09  1.1898901652545445e-09  5.0577958411089664e-10  2.1034189121301000e-10  8.5701407845334839e-11  3.4250656483447863e-11  1.3441249416038509e-11  5.1847543407883921e-12  1.9673192505018281e-12  7.3308717284255902e-13  2.5570704539686358e-13  0.0000000000000000e+00  6.0000000000000002e-05  5.5597360229202007e-05  5.3053662024676481e-05  5.0584664885107050e-05  4.7673521509686573e-05  4.4354186002619776e-05  4.0888911937242333e-05  3.7591747767784216e-05  3.4715745450175738e-05  3.2398908358539005e-05  3.0662860546308121e-05  2.9444726090096903e-05  2.8638711566117107e-05  2.8130121780279007e-05  2.7814072068777763e-05  2.7598296249680541e-05  2.7392073798428798e-05  2.7075599570510252e-05  2.6348352573123663e-05  2.3865824322938420e-05  1.9862060253438920e-05  1.6060075272785504e-05  1.2723164989476984e-05  9.7760456335176412e-06  7.2256414709836481e-06  5.1110684949362377e-06  3.4511592044684515e-06  2.2231765477808584e-06  1.3675959909122008e-06  8.0666781940808595e-07  4.6789884723101553e-07  3.1921715938861182e-07  2.9801425772589505e-07  1.9729797366227656e-07  1.1119862924133884e-07  5.7702028940380126e-08  2.8421668783432454e-08  1.3468477763131449e-08  6.1821815907558658e-09  2.7594488211653855e-09  1.2008508630098093e-09  5.1048503230812058e-10  2.1231816734614601e-10  8.6514307013024791e-11  3.4578478807735081e-11  1.3571000367272073e-11  5.2352074435171670e-12  1.9866120544494725e-12  7.4035170956308933e-13  2.5839268851360362e-13  0.0000000000000000e+00  6.0000000000000002e-05  5.5828319160811537e-05  5.3312053974833731e-05  5.0845529170753703e-05  4.7926387043830994e-05  4.4593224418764616e-05  4.1110917876938834e-05  3.7795781486813087e-05  3.4902826470542298e-05  3.2571431414582149e-05  3.0823870839851117e-05  2.9597277964187693e-05  2.8785448310686669e-05  2.8273094775746894e-05  2.7954738527596463e-05  2.7737614069728957e-05  2.7530677105063223e-05  2.7214573245661440e-05  2.6494272474043912e-05  2.4173658915168054e-05  2.0366993174359585e-05  1.6588541229856997e-05  1.3198499783372256e-05  1.0174970725991142e-05  7.5424811160149966e-06  5.3496958253961380e-06  3.6216225514578539e-06  2.3387501689139308e-06  1.4420634463640000e-06  8.5230283892137332e-07  4.9426520610417348e-07  3.3219362251700749e-07  3.0379774507589996e-07  1.9993076892197035e-07  1.1238762912552898e-07  5.8256901307695136e-08  2.8683317079714768e-08  1.3590811879412716e-08  6.2383582044985773e-09  2.7846882475044677e-09  1.2119342386703934e-09  5.1524321727564037e-10  2.1431680319403050e-10  8.7336523382999741e-11  3.4910112372278217e-11  1.3702281698918848e-11  5.2862640796283611e-12  2.0061387618571860e-12  7.4770495357970747e-13  2.6110415537920752e-13  0.0000000000000000e+00  6.0000000000000002e-05  5.6053498604691538e-05  5.3569655901255497e-05  5.1107071892754090e-05  4.8180366535963266e-05  4.4833470259951120e-05  4.1334103300521573e-05  3.8000921347537532e-05  3.5090926500812686e-05  3.2744888985525876e-05  3.0985742777064860e-05  2.9750634037082322e-05  2.8932947303352321e-05  2.8416801406053132e-05  2.8096120403632113e-05  2.7877637503180759e-05  2.7669991167321878e-05  2.7354347839983677e-05  2.6642467369828121e-05  2.4467865743079701e-05  2.0843294137800030e-05  1.7102100908288449e-05  1.3669103396446675e-05  1.0574606605310690e-05  7.8625913068470451e-06  5.5924089230923405e-06  3.7959854113908713e-06  2.4575539749759684e-06  1.5189548312752994e-06  8.9962053811327795e-07  5.2174490298562634e-07  3.4606970946315929e-07  3.1008139441626636e-07  2.0271039006947976e-07  1.1361799232012802e-07  5.8824244768419776e-08  2.8949178923228286e-08  1.3714740415093526e-08  6.2951884422604589e-09  2.8102066664288431e-09  1.2231380474276447e-09  5.2005310676120934e-10  2.1633733457552919e-10  8.8167853225074668e-11  3.5245469887432038e-11  1.3835056865319242e-11  5.3379092788858540e-12  2.0258933629538353e-12  7.5514453429586899e-13  2.6384083722828070e-13  0.0000000000000000e+00  6.0000000000000002e-05  5.6273133074521896e-05  5.3826523889301945e-05  5.1369316164954835e-05  4.8435472874945526e-05  4.5074932718961639e-05  4.1558475544515351e-05  3.8207173374076267e-05  3.5280050533122345e-05  3.2919285301908564e-05  3.1148480094800843e-05  2.9904797776152218e-05  2.9081211898033806e-05  2.8561245000664568e-05  2.8238221036877728e-05  2.8018369861063053e-05  2.7810018781228647e-05  2.7494923131877144e-05  2.6792762181105102e-05  2.4750458045492281e-05  2.1293915541513260e-05  1.7600819174650036e-05  1.4134640311764813e-05  1.0974729856763085e-05  8.1858992374981785e-06  5.8392387551704417e-06  3.9743310151348101e-06  2.5796853253860010e-06  1.5983590054293687e-06  9.4869109589074028e-07  5.5038637076675048e-07  3.6084454214837249e-07  3.1686432032938903e-07  2.0563512359183658e-07  1.1488909388302913e-07  5.9403879060075989e-08  2.9219198479033768e-08  1.3840243328297620e-08  6.3526640666761004e-09  2.8360004133318729e-09  1.2344606131913785e-09  5.2491393603266298e-10  2.1837941824678353e-10  8.9008145790604230e-11  3.5584486660142312e-11  1.3969298730465450e-11  5.3901319048103611e-12  2.0458713795710247e-12  7.6266868848344694e-13  2.6660240093072760e-13  0.0000000000000000e+00  6.0000000000000002e-05  5.6487499566857123e-05  5.4082723203485570e-05  5.1632287910017167e-05  4.8691719710893257e-05  4.5317621158740878e-05  4.1784042003446109e-05  3.8414543682733337e-05  3.5470203708549369e-05  3.3094624777825672e-05  3.1312086717172432e-05  3.0059772816324513e-05  2.9230245585171238e-05  2.8706428993355582e-05  2.8381043843686641e-05  2.8159814505251232e-05  2.7950762741340738e-05  2.7636298499491835e-05  2.6944997740652642e-05  2.5023179885475318e-05  2.1721681739285891e-05  1.8085046027563760e-05  1.4594936738899637e-05  1.1375212493063125e-05  8.5123944648490593e-06  6.0902596282177887e-06  4.1567732733733252e-06  2.7052630845073356e-06  1.6803795025731694e-06  9.9959424521687655e-07  5.8024325274619659e-07  3.7652448346266586e-07  3.2414473579093767e-07  2.0870276161342446e-07  1.1620018677456874e-07  5.9995602218960587e-08  2.9493319195690975e-08  1.3967302699469282e-08  6.4107784659832983e-09  2.8620667389178949e-09  1.2459007193715333e-09  5.2982515714304324e-10  2.2044280905981485e-10  8.9857293310266344e-11  3.5927116323000621e-11  1.4104987786195886e-11  5.4429239271895744e-12  2.0660695739008656e-12  7.7027614490129841e-13  2.6938873332068970e-13  0.0000000000000000e+00  6.0000000000000002e-05  5.6696908423415891e-05  5.4338328023332462e-05  5.1896015792126178e-05  4.8949121461707908e-05  4.5561545132220892e-05  4.2010810140508890e-05  3.8623038477028007e-05  3.5661391298444835e-05  3.3270911984321461e-05  3.1476566727172130e-05  3.0215562934463368e-05  2.9380051971167218e-05  2.8852356907125345e-05  2.8524592306476872e-05  2.8301974841972918e-05  2.8092225837896305e-05  2.7778472856021724e-05  2.7099029916240427e-05  2.5287549152846505e-05  2.2129252106851753e-05  1.8555380892204900e-05  1.5049983753104766e-05  1.1776029292710171e-05  8.8421353176586500e-06  6.3455940400841293e-06  4.3434602387184872e-06  2.8344299883759631e-06  1.7651360869683464e-06  1.0524202653326860e-06  6.1137517103639755e-07  3.9312231339121195e-07  3.3191996602120341e-07  2.1191059934697813e-07  1.1755040293955479e-07  6.0599189556337139e-08  2.9771482767034908e-08  1.4095902069880831e-08  6.4695262917954839e-09  2.8884036255131415e-09  1.2574575202575665e-09  5.3478639776528540e-10  2.2252734143639722e-10  9.0715222885635236e-11  3.6273327373868475e-11  1.4242110709361075e-11  5.4962798333083967e-12  2.0864857129107799e-12  7.7796603097815555e-13  2.7219989649312966e-13  0.0000000000000000e+00  6.0000000000000002e-05  5.6901695951668198e-05  5.4593421165368006e-05  5.2160531140391525e-05  4.9207693311942584e-05  4.5806714396536592e-05  4.2238787495575841e-05  3.8832664043234879e-05  3.5853618688849783e-05  3.3448151627365756e-05  3.1641924343261523e-05  3.0372172028287858e-05  2.9530634761499619e-05  2.8999032341827470e-05  2.8668869965304887e-05  2.8444854316565832e-05  2.8234410855055982e-05  2.7921444614721483e-05  2.7254728548366140e-05  2.5544894474274744e-05  2.2519110549846809e-05  1.9012637200527928e-05  1.5499938530585657e-05  1.2177264597472905e-05  9.1752553104682974e-06  6.6054177153481580e-06  4.5345777893491482e-06  2.9673552136235969e-06  1.8527664713865427e-06  1.1072710899573510e-06  6.4384851066160122e-07  4.1065667121239695e-07  3.4018644035262541e-07  2.1525543316400346e-07  1.1893875493638517e-07  6.1214393033430357e-08  3.0053628336563962e-08  1.4226025914464912e-08  6.5289031668730707e-09  2.9150096382299463e-09  1.2691304691105225e-09  5.3979742778195951e-10  2.2463291433577313e-10  9.1581889912899382e-11  3.6623100370848712e-11  1.4380659192884183e-11  5.5501961512050258e-12  2.1071183776816281e-12  7.8573779729622343e-13  2.7503609198988443e-13  0.0000000000000000e+00  6.0000000000000002e-05  5.7102218510582529e-05  5.4848093781126149e-05  5.2425867862803439e-05  4.9467451204778563e-05  4.6053138922461270e-05  4.2467981690985181e-05  3.9043426746351098e-05  3.6046891367461254e-05  3.3626348529603303e-05  3.1808163900042556e-05  3.0529604099005654e-05  2.9681997746836000e-05  2.9146458964014368e-05  2.8813880410963981e-05  2.8588456409259803e-05  2.8377320570046575e-05  2.8065211677038971e-05  2.7411976271165278e-05  2.5796386748197715e-05  2.2893570084282904e-05  1.9457809772380444e-05  1.5945123979377838e-05  1.2579118557091523e-05  9.5119695114552512e-06  6.8699647742863308e-06  4.7303534896130966e-06  3.1042371112364115e-06  1.9434281675223209e-06  1.1642615111248991e-06  6.7773722259536793e-07  4.2915169624000574e-07  3.4893966137288258e-07  2.1873355955906906e-07  1.2036413811211042e-07  6.1840940984665000e-08  3.0339691904601386e-08  1.4357659225012359e-08  6.5889054499792344e-09  2.9418838044501640e-09  1.2809192598070450e-09  5.4485813215528812e-10  2.2675947904911702e-10  9.2457272745239415e-11  3.6976425656720863e-11  1.4520628997972695e-11  5.6046710633301097e-12  2.1279668089794382e-12  7.9359115642573904e-13  2.7789763218391610e-13  0.0000000000000000e+00  6.0000000000000002e-05  5.7298847816159609e-05  5.5102445025669665e-05  5.2692062350755685e-05  4.9728411827793827e-05  4.6300828899757074e-05  4.2698400435474815e-05  3.9255333026417955e-05  3.6241214912699976e-05  3.3805507615202868e-05  3.1975289832274023e-05  3.0687863236986551e-05  2.9834144791599354e-05  2.929464049858752