<?xml version="1.0"?>
<VTKFile type="UnstructuredGrid"  version="0.1"  >
<UnstructuredGrid>
<Piece  NumberOfPoints="2601" NumberOfCells="5000">
<Points>
<DataArray  type="Float64"  NumberOfComponents="3"  format="ascii">-1 0 0  -0.96 0 0  -0.92 0 0  -0.88 0 0  -0.84 0 0  -0.8 0 0  -0.76 0 0  -0.72 0 0  -0.6799999999999999 0 0  -0.64 0 0  -0.6 0 0  -0.5600000000000001 0 0  -0.52 0 0  -0.48 0 0  -0.4399999999999999 0 0  -0.4 0 0  -0.36 0 0  -0.32 0 0  -0.28 0 0  -0.24 0 0  -0.2 0 0  -0.16 0 0  -0.12 0 0  -0.07999999999999996 0 0  -0.04000000000000004 0 0  0 0 0  0.04000000000000004 0 0  0.08000000000000007 0 0  0.1200000000000001 0 0  0.1599999999999999 0 0  0.2 0 0  0.24 0 0  0.28 0 0  0.3200000000000001 0 0  0.3600000000000001 0 0  0.3999999999999999 0 0  0.4399999999999999 0 0  0.48 0 0  0.52 0 0  0.5600000000000001 0 0  0.6000000000000001 0 0  0.6399999999999999 0 0  0.6799999999999999 0 0  0.72 0 0  0.76 0 0  0.8 0 0  0.8400000000000001 0 0  0.8799999999999999 0 0  0.9199999999999999 0 0  0.96 0 0  1 0 0  -1 0.016 0  -0.96 0.016 0  -0.92 0.016 0  -0.88 0.016 0  -0.84 0.016 0  -0.8 0.016 0  -0.76 0.016 0  -0.72 0.016 0  -0.6799999999999999 0.016 0  -0.64 0.016 0  -0.6 0.016 0  -0.5600000000000001 0.016 0  -0.52 0.016 0  -0.48 0.016 0  -0.4399999999999999 0.016 0  -0.4 0.016 0  -0.36 0.016 0  -0.32 0.016 0  -0.28 0.016 0  -0.24 0.016 0  -0.2 0.016 0  -0.16 0.016 0  -0.12 0.016 0  -0.07999999999999996 0.016 0  -0.04000000000000004 0.016 0  0 0.016 0  0.04000000000000004 0.016 0  0.08000000000000007 0.016 0  0.1200000000000001 0.016 0  0.1599999999999999 0.016 0  0.2 0.016 0  0.24 0.016 0  0.28 0.016 0  0.3200000000000001 0.016 0  0.3600000000000001 0.016 0  0.3999999999999999 0.016 0  0.4399999999999999 0.016 0  0.48 0.016 0  0.52 0.016 0  0.5600000000000001 0.016 0  0.6000000000000001 0.016 0  0.6399999999999999 0.016 0  0.6799999999999999 0.016 0  0.72 0.016 0  0.76 0.016 0  0.8 0.016 0  0.8400000000000001 0.016 0  0.8799999999999999 0.016 0  0.9199999999999999 0.016 0  0.96 0.016 0  1 0.016 0  -1 0.032 0  -0.96 0.032 0  -0.92 0.032 0  -0.88 0.032 0  -0.84 0.032 0  -0.8 0.032 0  -0.76 0.032 0  -0.72 0.032 0  -0.6799999999999999 0.032 0  -0.64 0.032 0  -0.6 0.032 0  -0.5600000000000001 0.032 0  -0.52 0.032 0  -0.48 0.032 0  -0.4399999999999999 0.032 0  -0.4 0.032 0  -0.36 0.032 0  -0.32 0.032 0  -0.28 0.032 0  -0.24 0.032 0  -0.2 0.032 0  -0.16 0.032 0  -0.12 0.032 0  -0.07999999999999996 0.032 0  -0.04000000000000004 0.032 0  0 0.032 0  0.04000000000000004 0.032 0  0.08000000000000007 0.032 0  0.1200000000000001 0.032 0  0.1599999999999999 0.032 0  0.2 0.032 0  0.24 0.032 0  0.28 0.032 0  0.3200000000000001 0.032 0  0.3600000000000001 0.032 0  0.3999999999999999 0.032 0  0.4399999999999999 0.032 0  0.48 0.032 0  0.52 0.032 0  0.5600000000000001 0.032 0  0.6000000000000001 0.032 0  0.6399999999999999 0.032 0  0.6799999999999999 0.032 0  0.72 0.032 0  0.76 0.032 0  0.8 0.032 0  0.8400000000000001 0.032 0  0.8799999999999999 0.032 0  0.9199999999999999 0.032 0  0.96 0.032 0  1 0.032 0  -1 0.04800000000000001 0  -0.96 0.04800000000000001 0  -0.92 0.04800000000000001 0  -0.88 0.04800000000000001 0  -0.84 0.04800000000000001 0  -0.8 0.04800000000000001 0  -0.76 0.04800000000000001 0  -0.72 0.04800000000000001 0  -0.6799999999999999 0.04800000000000001 0  -0.64 0.04800000000000001 0  -0.6 0.04800000000000001 0  -0.5600000000000001 0.04800000000000001 0  -0.52 0.04800000000000001 0  -0.48 0.04800000000000001 0  -0.4399999999999999 0.04800000000000001 0  -0.4 0.04800000000000001 0  -0.36 0.04800000000000001 0  -0.32 0.04800000000000001 0  -0.28 0.04800000000000001 0  -0.24 0.04800000000000001 0  -0.2 0.04800000000000001 0  -0.16 0.04800000000000001 0  -0.12 0.04800000000000001 0  -0.07999999999999996 0.04800000000000001 0  -0.04000000000000004 0.04800000000000001 0  0 0.04800000000000001 0  0.04000000000000004 0.04800000000000001 0  0.08000000000000007 0.04800000000000001 0  0.1200000000000001 0.04800000000000001 0  0.1599999999999999 0.04800000000000001 0  0.2 0.04800000000000001 0  0.24 0.04800000000000001 0  0.28 0.04800000000000001 0  0.3200000000000001 0.04800000000000001 0  0.3600000000000001 0.04800000000000001 0  0.3999999999999999 0.04800000000000001 0  0.4399999999999999 0.04800000000000001 0  0.48 0.04800000000000001 0  0.52 0.04800000000000001 0  0.5600000000000001 0.04800000000000001 0  0.6000000000000001 0.04800000000000001 0  0.6399999999999999 0.04800000000000001 0  0.6799999999999999 0.04800000000000001 0  0.72 0.04800000000000001 0  0.76 0.04800000000000001 0  0.8 0.04800000000000001 0  0.8400000000000001 0.04800000000000001 0  0.8799999999999999 0.04800000000000001 0  0.9199999999999999 0.04800000000000001 0  0.96 0.04800000000000001 0  1 0.04800000000000001 0  -1 0.064 0  -0.96 0.064 0  -0.92 0.064 0  -0.88 0.064 0  -0.84 0.064 0  -0.8 0.064 0  -0.76 0.064 0  -0.72 0.064 0  -0.6799999999999999 0.064 0  -0.64 0.064 0  -0.6 0.064 0  -0.5600000000000001 0.064 0  -0.52 0.064 0  -0.48 0.064 0  -0.4399999999999999 0.064 0  -0.4 0.064 0  -0.36 0.064 0  -0.32 0.064 0  -0.28 0.064 0  -0.24 0.064 0  -0.2 0.064 0  -0.16 0.064 0  -0.12 0.064 0  -0.07999999999999996 0.064 0  -0.04000000000000004 0.064 0  0 0.064 0  0.04000000000000004 0.064 0  0.08000000000000007 0.064 0  0.1200000000000001 0.064 0  0.1599999999999999 0.064 0  0.2 0.064 0  0.24 0.064 0  0.28 0.064 0  0.3200000000000001 0.064 0  0.3600000000000001 0.064 0  0.3999999999999999 0.064 0  0.4399999999999999 0.064 0  0.48 0.064 0  0.52 0.064 0  0.5600000000000001 0.064 0  0.6000000000000001 0.064 0  0.6399999999999999 0.064 0  0.6799999999999999 0.064 0  0.72 0.064 0  0.76 0.064 0  0.8 0.064 0  0.8400000000000001 0.064 0  0.8799999999999999 0.064 0  0.9199999999999999 0.064 0  0.96 0.064 0  1 0.064 0  -1 0.08 0  -0.96 0.08 0  -0.92 0.08 0  -0.88 0.08 0  -0.84 0.08 0  -0.8 0.08 0  -0.76 0.08 0  -0.72 0.08 0  -0.6799999999999999 0.08 0  -0.64 0.08 0  -0.6 0.08 0  -0.5600000000000001 0.08 0  -0.52 0.08 0  -0.48 0.08 0  -0.4399999999999999 0.08 0  -0.4 0.08 0  -0.36 0.08 0  -0.32 0.08 0  -0.28 0.08 0  -0.24 0.08 0  -0.2 0.08 0  -0.16 0.08 0  -0.12 0.08 0  -0.07999999999999996 0.08 0  -0.04000000000000004 0.08 0  0 0.08 0  0.04000000000000004 0.08 0  0.08000000000000007 0.08 0  0.1200000000000001 0.08 0  0.1599999999999999 0.08 0  0.2 0.08 0  0.24 0.08 0  0.28 0.08 0  0.3200000000000001 0.08 0  0.3600000000000001 0.08 0  0.3999999999999999 0.08 0  0.4399999999999999 0.08 0  0.48 0.08 0  0.52 0.08 0  0.5600000000000001 0.08 0  0.6000000000000001 0.08 0  0.6399999999999999 0.08 0  0.6799999999999999 0.08 0  0.72 0.08 0  0.76 0.08 0  0.8 0.08 0  0.8400000000000001 0.08 0  0.8799999999999999 0.08 0  0.9199999999999999 0.08 0  0.96 0.08 0  1 0.08 0  -1 0.09600000000000002 0  -0.96 0.09600000000000002 0  -0.92 0.09600000000000002 0  -0.88 0.09600000000000002 0  -0.84 0.09600000000000002 0  -0.8 0.09600000000000002 0  -0.76 0.09600000000000002 0  -0.72 0.09600000000000002 0  -0.6799999999999999 0.09600000000000002 0  -0.64 0.09600000000000002 0  -0.6 0.09600000000000002 0  -0.5600000000000001 0.09600000000000002 0  -0.52 0.09600000000000002 0  -0.48 0.09600000000000002 0  -0.4399999999999999 0.09600000000000002 0  -0.4 0.09600000000000002 0  -0.36 0.09600000000000002 0  -0.32 0.09600000000000002 0  -0.28 0.09600000000000002 0  -0.24 0.09600000000000002 0  -0.2 0.09600000000000002 0  -0.16 0.09600000000000002 0  -0.12 0.09600000000000002 0  -0.07999999999999996 0.09600000000000002 0  -0.04000000000000004 0.09600000000000002 0  0 0.09600000000000002 0  0.04000000000000004 0.09600000000000002 0  0.08000000000000007 0.09600000000000002 0  0.1200000000000001 0.09600000000000002 0  0.1599999999999999 0.09600000000000002 0  0.2 0.09600000000000002 0  0.24 0.09600000000000002 0  0.28 0.09600000000000002 0  0.3200000000000001 0.09600000000000002 0  0.3600000000000001 0.09600000000000002 0  0.3999999999999999 0.09600000000000002 0  0.4399999999999999 0.09600000000000002 0  0.48 0.09600000000000002 0  0.52 0.09600000000000002 0  0.5600000000000001 0.09600000000000002 0  0.6000000000000001 0.09600000000000002 0  0.6399999999999999 0.09600000000000002 0  0.6799999999999999 0.09600000000000002 0  0.72 0.09600000000000002 0  0.76 0.09600000000000002 0  0.8 0.09600000000000002 0  0.8400000000000001 0.09600000000000002 0  0.8799999999999999 0.09600000000000002 0  0.9199999999999999 0.09600000000000002 0  0.96 0.09600000000000002 0  1 0.09600000000000002 0  -1 0.112 0  -0.96 0.112 0  -0.92 0.112 0  -0.88 0.112 0  -0.84 0.112 0  -0.8 0.112 0  -0.76 0.112 0  -0.72 0.112 0  -0.6799999999999999 0.112 0  -0.64 0.112 0  -0.6 0.112 0  -0.5600000000000001 0.112 0  -0.52 0.112 0  -0.48 0.112 0  -0.4399999999999999 0.112 0  -0.4 0.112 0  -0.36 0.112 0  -0.32 0.112 0  -0.28 0.112 0  -0.24 0.112 0  -0.2 0.112 0  -0.16 0.112 0  -0.12 0.112 0  -0.07999999999999996 0.112 0  -0.04000000000000004 0.112 0  0 0.112 0  0.04000000000000004 0.112 0  0.08000000000000007 0.112 0  0.1200000000000001 0.112 0  0.1599999999999999 0.112 0  0.2 0.112 0  0.24 0.112 0  0.28 0.112 0  0.3200000000000001 0.112 0  0.3600000000000001 0.112 0  0.3999999999999999 0.112 0  0.4399999999999999 0.112 0  0.48 0.112 0  0.52 0.112 0  0.5600000000000001 0.112 0  0.6000000000000001 0.112 0  0.6399999999999999 0.112 0  0.6799999999999999 0.112 0  0.72 0.112 0  0.76 0.112 0  0.8 0.112 0  0.8400000000000001 0.112 0  0.8799999999999999 0.112 0  0.9199999999999999 0.112 0  0.96 0.112 0  1 0.112 0  -1 0.128 0  -0.96 0.128 0  -0.92 0.128 0  -0.88 0.128 0  -0.84 0.128 0  -0.8 0.128 0  -0.76 0.128 0  -0.72 0.128 0  -0.6799999999999999 0.128 0  -0.64 0.128 0  -0.6 0.128 0  -0.5600000000000001 0.128 0  -0.52 0.128 0  -0.48 0.128 0  -0.4399999999999999 0.128 0  -0.4 0.128 0  -0.36 0.128 0  -0.32 0.128 0  -0.28 0.128 0  -0.24 0.128 0  -0.2 0.128 0  -0.16 0.128 0  -0.12 0.128 0  -0.07999999999999996 0.128 0  -0.04000000000000004 0.128 0  0 0.128 0  0.04000000000000004 0.128 0  0.08000000000000007 0.128 0  0.1200000000000001 0.128 0  0.1599
[...]
<PointData  Scalars="f_100"> 
<DataArray  type="Float64"  Name="f_100"  format="ascii">6.0000000000000002e-05  5.4281059350199882e-05  5.3014709628033050e-05  5.2591805606092156e-05  5.2410510381216519e-05  5.2275635455279600e-05  5.2113439812040452e-05  5.1886131287828927e-05  5.1565727551157793e-05  5.1126980635333663e-05  5.0546733790702057e-05  4.9805567963958994e-05  4.8890180807402031e-05  4.7795701716742431e-05  4.6527360442689547e-05  4.5100810800298264e-05  4.3538355246508495e-05  4.1839078936526353e-05  3.9809921142495320e-05  3.1994695195910522e-05  2.3054395730361335e-05  1.8906204126548992e-05  1.6098310221263229e-05  1.4043005653386782e-05  1.2480239293115397e-05  1.1257077021814644e-05  1.0273600033467438e-05  9.4690505248091598e-06  8.8364246770351183e-06  8.4972867342387713e-06  8.9651800340911555e-06  1.2382879657935136e-05  1.7260264277545215e-05  1.7879999649533791e-05  1.6962726016205642e-05  1.5497642306474718e-05  1.3852866614536889e-05  1.2171250116984613e-05  1.0523152651550665e-05  8.9536341724700618e-06  7.4954928632136731e-06  6.1722070914446368e-06  4.9984249368666046e-06  3.9803265783754629e-06  3.1164294900533440e-06  2.3987569725100667e-06  1.8138483887656177e-06  1.3420973311932340e-06  9.5054029826584861e-07  5.6386551169180956e-07  0.0000000000000000e+00  6.0000000000000002e-05  5.4555155988685112e-05  5.3282074505005216e-05  5.2856118192702306e-05  5.2673738453172108e-05  5.2538311837794896e-05  5.2375590838008434e-05  5.2147560367989194e-05  5.1826092334258154e-05  5.1385808389904004e-05  5.0803423467788763e-05  5.0059396618143245e-05  4.9140321456950787e-05  4.8041255019213201e-05  4.6767399568684435e-05  4.5334437753438617e-05  4.3764777383006562e-05  4.2057923853565610e-05  4.0001604858156392e-05  3.2837459261797962e-05  2.4214469362963046e-05  1.9858926175751376e-05  1.6896867059635091e-05  1.4730146918496167e-05  1.3083940956009544e-05  1.1796568654256348e-05  1.0762320784489581e-05  9.9162068004932096e-06  9.2477431980103624e-06  8.8748308251709800e-06  9.3054303754463674e-06  1.2514351238570983e-05  1.7339327098334534e-05  1.7974651304945375e-05  1.7055243999562002e-05  1.5583646825140896e-05  1.3930848043838292e-05  1.2240702622495536e-05  1.0584019585399236e-05  9.0061333290099824e-06  7.5400474467725163e-06  6.2094003844334961e-06  5.0289567469436820e-06  4.0049684113623629e-06  3.1359809253219156e-06  2.4140067843302926e-06  1.8255437508404013e-06  1.3509248799665173e-06  9.5712601352197912e-07  5.6882172234685521e-07  0.0000000000000000e+00  6.0000000000000002e-05  5.4825206979435291e-05  5.3548618545984617e-05  5.3121073955258796e-05  5.2938070635647159e-05  5.2802237123614703e-05  5.2639035166562725e-05  5.2410294611173891e-05  5.2087762751918224e-05  5.1645937203052257e-05  5.1061406209636482e-05  5.0314507063738945e-05  4.9391729048542241e-05  4.8288056503787972e-05  4.7008664189436714e-05  4.5569265670380379e-05  4.3992392921772154e-05  4.2278131650250391e-05  4.0199927519299395e-05  3.3607317538681105e-05  2.5365244540393443e-05  2.0809502034054709e-05  1.7702143554938388e-05  1.5428197398082565e-05  1.3700673102085297e-05  1.2350186316545795e-05  1.1265669446063198e-05  1.0378066988819942e-05  9.6733797726046573e-06  9.2654162424538721e-06  9.6534556214870743e-06  1.2675265902687985e-05  1.7430478451601953e-05  1.8073707443311293e-05  1.7149499058749649e-05  1.5670508122372815e-05  1.4009382082382378e-05  1.2310583799112636e-05  1.0645247242276241e-05  9.0589431138082649e-06  7.5848691676922246e-06  6.2468209926459676e-06  5.0596792710620129e-06  4.0297677771950245e-06  3.1556603955039187e-06  2.4293589723437182e-06  1.8373196891892639e-06  1.3598148274247275e-06  9.6375696972362434e-07  5.7377761986049562e-07  0.0000000000000000e+00  6.0000000000000002e-05  5.5090416424250005e-05  5.3814301093215536e-05  5.3386666105081032e-05  5.3203509417419413e-05  5.3067416780235451e-05  5.2903779287637612e-05  5.2674340930508777e-05  5.2350745964885937e-05  5.1907374432416146e-05  5.1320689546150068e-05  5.0570906969932275e-05  4.9644411337005318e-05  4.8536113933355274e-05  4.7251161971224700e-05  4.5805301940448880e-05  4.4221208293407237e-05  4.2499693615319275e-05  4.0404468117207603e-05  3.4314296473831173e-05  2.6477298347724358e-05  2.1752648626987286e-05  1.8511857209897719e-05  1.6135983295391857e-05  1.4329878249128082e-05  1.2917758480208657e-05  1.1783731641450238e-05  1.0854898072346579e-05  1.0113748000777931e-05  9.6696415668097490e-06  1.0010921780123438e-05  1.2862046357334465e-05  1.7533910362441887e-05  1.8177235422544027e-05  1.7245519219862484e-05  1.5758237148671476e-05  1.4088473914475700e-05  1.2380896683107499e-05  1.0706837635428622e-05  9.1120648806345361e-06  7.6299588653962826e-06  6.2844693323623902e-06  5.0905925848741619e-06  4.0547244927121106e-06  3.1754675364419228e-06  2.4448130579177065e-06  1.8491756526419296e-06  1.3687665358771892e-06  9.7043233418793399e-07  5.7873124526980309e-07  0.0000000000000000e+00  6.0000000000000002e-05  5.5350226138854221e-05  5.4079097710609692e-05  5.3652891976557618e-05  5.3470058586840858e-05  5.3333856679783657e-05  5.3169829798639265e-05  5.2939706234388579e-05  5.2615049072376910e-05  5.2170127333042653e-05  5.1581280868759646e-05  5.0828603835881987e-05  4.9898375882376923e-05  4.8785434861365092e-05  4.7494900369530007e-05  4.6042553757992197e-05  4.4451229776019451e-05  4.2722604901540230e-05  4.0614803152987653e-05  3.4967267029979148e-05  2.7536424225873738e-05  2.2684588041151995e-05  1.9324064170520728e-05  1.6852500677477925e-05  1.4971110446681538e-05  1.3499196299090786e-05  1.2316657500985357e-05  1.1347016218553097e-05  1.0569290248211912e-05  1.0088091137821928e-05  1.0379229361745037e-05  1.3072139532611073e-05  1.7649764054549538e-05  1.8285285399417626e-05  1.7343325192857017e-05  1.5846842438550696e-05  1.4168127943818509e-05  1.2451644077256222e-05  1.0768792749760159e-05  9.1655000511114577e-06  7.6753175044190611e-06  6.3223459832066778e-06  5.1216969518714335e-06  4.0798385750469614e-06  3.1954021861605932e-06  2.4603687583144336e-06  1.8611112761320665e-06  1.3777795519086158e-06  9.7715149440306630e-07  5.8368153751460900e-07  0.0000000000000000e+00  6.0000000000000002e-05  5.5604272354121310e-05  5.4342998070773430e-05  5.3919752801075617e-05  5.3737723166500543e-05  5.3601563083540878e-05  5.3437193407237169e-05  5.3206397438256071e-05  5.2880679130456368e-05  5.2434203081939957e-05  5.1843187460980690e-05  5.1087605026770580e-05  5.0153630090328816e-05  4.9036026674851878e-05  4.7739886672118626e-05  4.6281028160817441e-05  4.4682463506425925e-05  4.2946863362393376e-05  4.0830517743994542e-05  3.5573972321396466e-05  2.8537263257157791e-05  2.3602308118291466e-05  2.0137051363568601e-05  1.7576864643526444e-05  1.5624002825156902e-05  1.4094471828010237e-05  1.2864647479848490e-05  1.1854779349099645e-05  1.1040479101968716e-05  1.0521354743092489e-05  1.0759585899926104e-05  1.3303735982110972e-05  1.7778131065977588e-05  1.8397890641302171e-05  1.7442930755004428e-05  1.5936330256829569e-05  1.4248347845916359e-05  1.2522828567268315e-05  1.0831114540712102e-05  9.2192501022091312e-06  7.7209461533084471e-06  6.3604516605434317e-06  5.1529927913125054e-06  4.1051102071103821e-06  3.2154643497629621e-06  2.4760259524717438e-06  1.8731263480348082e-06  1.3868535741260016e-06  9.8391402152267264e-07  5.8862816067476269e-07  0.0000000000000000e+00  6.0000000000000002e-05  5.5852349784903034e-05  5.4606004467595868e-05  5.4187253523472867e-05  5.4006509359143111e-05  5.3870542629136581e-05  5.3705876933671209e-05  5.3474421474335010e-05  5.3147643167217629e-05  5.2699608798338285e-05  5.2106416523619529e-05  5.1347917803523870e-05  5.0410181245479007e-05  4.9287896629869084e-05  4.7986128034516302e-05  4.6520732061914372e-05  4.4914915491929645e-05  4.3172468623774483e-05  4.1051213365803687e-05  3.6141113894343282e-05  2.9479488517877423e-05  2.4503344834387460e-05  2.0949303697960984e-05  1.8308290172289854e-05  1.6288254866778758e-05  1.4703609538372500e-05  1.3427947170486810e-05  1.2378585156532499e-05  1.1527820007435855e-05  1.0970039624425941e-05  1.1153059894828793e-05  1.3555568777004165e-05  1.7919055844989727e-05  1.8515067760670228e-05  1.7544343071444886e-05  1.6026704719515509e-05  1.4329136611305143e-05  1.2594452535292213e-05  1.0893804933295399e-05  9.2733165559027057e-06  7.7668459672208743e-06  6.3987871927336014e-06  5.1844806518190871e-06  4.1305397091912554e-06  3.2356541705647446e-06  2.4917846528793568e-06  1.8852207833352081e-06  1.3959884266645507e-06  9.9071964046949934e-07  5.9357136189648316e-07  0.0000000000000000e+00  6.0000000000000002e-05  5.6094381862664856e-05  5.4868130771408442e-05  5.4455402648662289e-05  5.4276424501893449e-05  5.4140802319636597e-05  5.3975887312563889e-05  5.3743785299646414e-05  5.3415948195311516e-05  5.2966351560412794e-05  5.2370975195567550e-05  5.1609549347317263e-05  5.0668036538846218e-05  4.9541051880680570e-05  4.8233631509229347e-05  4.6761672275660286e-05  4.5148591622045918e-05  4.3399421353366805e-05  4.1276512962798434e-05  3.6674462747202205e-05  3.0365529719871928e-05  2.5385752565061827e-05  2.1759500753819693e-05  1.9046089100183429e-05  1.6963630242261011e-05  1.5326685070141859e-05  1.4006847041353737e-05  1.2918872100144212e-05  1.2031854495287102e-05  1.1434778277018271e-05  1.1560621600053303e-05  1.3826769220096053e-05  1.8072539018092600e-05  1.8636816894328897e-05  1.7647562967656957e-05  1.6117967895416489e-05  1.4410496581760019e-05  1.2666518171194175e-05  1.0956865821311927e-05  9.3277009706374452e-06  7.8130181735688692e-06  6.4373535023959156e-06  5.2161611896381799e-06  4.1561275155910019e-06  3.2559719063582092e-06  2.5076449824645534e-06  1.8973946015862165e-06  1.4051840374214344e-06  9.9756820540216929e-07  5.9851185485554254e-07  0.0000000000000000e+00  6.0000000000000002e-05  5.6330396123167624e-05  5.5129401689178841e-05  5.4724212109141767e-05  5.4547477026429111e-05  5.4412349513911919e-05  5.4247231594235438e-05  5.4014495902581811e-05  5.3685601222284033e-05  5.3234438419088996e-05  5.2636870570961791e-05  5.1872506779789541e-05  5.0927203090484278e-05  4.9795499503816110e-05  4.8482404069822545e-05  4.7003855539489768e-05  4.5383497679797447e-05  4.3627722694874628e-05  4.1506064031987027e-05  3.7178976020367482e-05  3.1199226748702887e-05  2.6248118202369022e-05  2.2566524561200541e-05  1.9789675284879535e-05  1.7649960324181379e-05  1.5963827966107228e-05  1.4601684920494791e-05  1.3476122073593571e-05  1.2553163740977169e-05  1.1916234048775094e-05  1.1983174349157340e-05  1.4116763224800376e-05  1.8238540810150786e-05  1.8763121847119610e-05  1.7752585166022539e-05  1.6210119893440579e-05  1.4492429481237003e-05  1.2739027482170492e-05  1.1020299066789811e-05  9.3824049343052991e-06  7.8594640601924751e-06  6.4761515909708809e-06  5.2480351507469300e-06  4.1818741553997420e-06  3.2764179098938791e-06  2.5236071555946481e-06  1.9096479088004966e-06  1.4144404201704610e-06  1.0044596795349937e-06  6.0345072446031275e-07  0.0000000000000000e+00  6.0000000000000002e-05  5.6560503903984973e-05  5.5389852227485259e-05  5.4993697146388273e-05  5.4819676423217417e-05  5.4685191917798482e-05  5.4519916945525603e-05  5.4286560308261311e-05  5.3956609259099947e-05  5.3503876409442542e-05  5.2904109713352363e-05  5.2136797179722702e-05  5.1187687968149777e-05  5.0051246517901950e-05  4.8732452630768939e-05  4.7247288531840107e-05  4.5619639352370083e-05  4.3857373838581745e-05  4.1739540169962140e-05  3.7658909166498730e-05  3.1985042808672954e-05  2.7089565662655515e-05  2.3369470814268522e-05  2.0538573752957761e-05  1.8347150743424039e-05  1.6615226633759092e-05  1.5212850051476553e-05  1.4050864051570494e-05  1.3092372353193930e-05  1.2415105679483687e-05  1.2421579001143961e-05  1.4425196839630787e-05  1.8416984292340194e-05  1.8893950217111911e-05  1.7859398496497119e-05  1.6303158939579342e-05  1.4574936442954196e-05  1.2811982301142235e-05  1.1084106499648401e-05  9.4374300584867822e-06  7.9061849656177261e-06  6.5151825260075380e-06  5.2801033561213446e-06  4.2077802366798393e-06  3.2969926128300777e-06  2.5396714624623763e-06  1.9219808825730075e-06  1.4237576598620708e-06  1.0113941184918924e-06  6.0838934921150125e-07  0.0000000000000000e+00  6.0000000000000002e-05  5.6784883643780899e-05  5.5649527283243220e-05  5.5263876200840367e-05  5.5093033208316640e-05  5.4959337575660737e-05  5.4793950650130829e-05  5.4559985582865243e-05  5.4228979327164146e-05  5.3774672560115223e-05  5.3172699667404660e-05  5.2402427596812813e-05  5.1449498202705566e-05  5.0308299900016706e-05  4.8983784063823905e-05  4.7491977887039671e-05  4.5857022241044819e-05  4.4088375703641695e-05  4.1976641474207661e-05  3.8117918652750300e-05  3.2727614029118628e-05  2.7909737693060697e-05  2.4167660055517612e-05  2.1292431551117336e-05  1.9055189555214454e-05  1.7281134582102725e-05  1.5840788088665413e-05  1.4643678347770805e-05  1.3650152355389265e-05  1.2932131413547330e-05  1.2876673341778110e-05  1.4751882696423768e-05  1.8607758265515064e-05  1.9029253516573267e-05  1.7967986089603339e-05  1.6397081446788481e-05  1.4658018033741839e-05  1.2885384294292078e-05  1.1148289917601677e-05  9.4927779737532321e-06  7.9531822710412066e-06  6.5544474306947912e-06  5.3123666896097332e-06  4.2338464334523810e-06  3.3176965125333500e-06  2.5558382562507870e-06  1.9343937598565832e-06  1.4331359005372669e-06  1.0183716565305333e-06  6.1332933823098031e-07  0.0000000000000000e+00  6.0000000000000002e-05  5.7003767190255304e-05  5.5908481308024029e-05  5.5534770806452907e-05  5.5367558891550722e-05  5.5234794862054418e-05  5.5069340108468126e-05  5.4834778837097317e-05  5.4502718464098396e-05  5.4046833901095112e-05  5.3442647468571488e-05  5.2669405063046608e-05  5.1712640800839205e-05  5.0566666599189764e-05  4.9236405211542862e-05  4.7737930207689007e-05  4.6095651870405093e-05  4.4320728711095951e-05  4.2217094107115891e-05  3.8559153272869096e-05  3.3431500675776980e-05  2.8708757787201346e-05  2.4960647106021547e-05  2.2051029046048210e-05  1.9774156223962200e-05  1.7961877410428204e-05  1.6486006687358134e-05  1.5255201287944551e-05  1.4227227351989681e-05  1.3468093029127232e-05  1.3349287771727646e-05  1.5096761507739956e-05  1.8810719674008315e-05  1.9168967300487129e-05  1.8078325558484280e-05  1.6491882080340307e-05  1.4741674276564996e-05  1.2959234968030134e-05  1.1212851086303491e-05  9.5484503258588129e-06  8.0004573937423420e-06  6.5939474752429435e-06  5.3448260879502282e-06  4.2600734749889578e-06  3.3385301612221428e-06  2.5721079425814594e-06  1.9468868269156712e-06  1.4425753353860922e-06  1.0253924950983629e-06  6.1827248046894061e-07  0.0000000000000000e+00  6.0000000000000002e-05  5.7217428620062780e-05  5.6166778007667185e-05  5.5806405486772428e-05  5.5643265945118157e-05  5.5511572473250510e-05  5.5346092837079646e-05  5.5110947228910312e-05  5.4777833728486302e-05  5.4320367470147927e-05  5.3713960151093688e-05  5.2937736602108022e-05  5.1977122755572865e-05  5.0826353547550750e-05  4.9490322898452241e-05  4.7985152074987066e-05  4.6335533696872404e-05  4.4554432629840631e-05  4.2460649262806153e-05  3.8985333835045559e-05  3.4101058490368931e-05  2.9487179657012832e-05  2.5748227895019023e-05  2.2814290985402280e-05  2.0504230983297328e-05  1.8657860256969397e-05  1.7149081498594943e-05  1.5886130192076219e-05  1.4824376880345024e-05  1.4023819962480009e-05  1.3840258260208701e-05  1.5459874411139479e-05  1.9025695501758265e-05  1.9313011312242165e-05  1.8190389175523798e-05  1.6587553820700805e-05  1.4825904671938891e-05  1.3033535675616676e-05  1.1277791739734108e-05  9.6044487726801448e-06  8.0480117816767540e-06  6.6336838697900399e-06  5.3774825325527376e-06  4.2864621369989646e-06  3.3594941570359964e-06  2.5884809708379588e-06  1.9594604110679000e-06  1.4520761985649266e-06  1.0324568932838425e-06  6.2322070401285992e-07  0.0000000000000000e+00  6.0000000000000002e-05  5.7426175154814842e-05  5.6424490050835429e-05  5.6078807650216014e-05  5.5920167771900471e-05  5.5789679418437049e-05  5.5624216467593174e-05  5.5388497965604067e-05  5.5054332203762537e-05  5.4595280318136509e-05  5.3986644754625193e-05  5.3207429237164374e-05  5.2242951054957524e-05  5.1087367669548677e-05  4.9745543940293461e-05  4.8233650057374910e-05  4.6576673116655543e-05  4.4789486480627593e-05  4.2707081721353354e-05  3.9398821879285709e-05  3.4740380978472798e-05  3.0245931635468325e-05  2.6530443402305153e-05  2.3582296956961569e-05  2.1245704318069945e-05  1.9369575540218467e-05  1.7830662461154475e-05  1.6537228607161268e-05  1.5442440951364248e-05  1.4600193616087577e-05  1.4350437292962224e-05  1.5841343150736968e-05  1.9252484138628416e-05  1.9461289654368174e-05  1.8304144048018156e-05  1.6684088025557361e-05  1.4910708218807368e-05  1.3108287623621687e-05  1.1343113580824745e-05  9.6607749817850010e-06  8.0958469090466455e-06  6.6736578585645224e-06  5.4103370427324108e-06  4.3130132343749023e-06  3.3805891366863672e-06  2.6049578270287530e-06  1.9721148738925103e-06  1.4616387584555916e-06  1.0395651598084177e-06  6.2817604376699871e-07  0.0000000000000000e+00  6.0000000000000002e-05  5.7630339824991194e-05  5.6681698769054143e-05  5.6352007482800612e-05  5.6198278672902902e-05  5.6069125010459830e-05  5.5903718745255529e-05  5.5667438305387340e-05  5.5332221001392098e-05  5.4871579513423885e-05  5.4260708329726313e-05  5.3478489997320759e-05  5.2510132689275485e-05  5.1349715889585906e-05  5.0002075151685520e-05  4.8483430717803359e-05  4.6819075473214335e-05  4.5025888485705327e-05  4.2956188130453680e-05  3.9801678495287231e-05  3.5353283020167962e-05  3.0986261714530952e-05  2.7307580829993905e-05  2.4355291076144385e-05  2.1998986422312334e-05  2.0097610893949885e-05  1.8531480327672472e-05  1.7209331756850328e-05  1.6082324780866063e-05  1.5198151891402263e-05  1.4880703363763591e-05  1.6241355938276292e-05  1.9490856226624864e-05  1.9613690990839671e-05  1.8419552296526571e-05  1.6781474492273432e-05  1.4996083435332504e-05  1.3183491878362143e-05  1.1408818282314388e-05  9.7174306285310982e-06  8.1439642726793266e-06  6.7138707150824891e-06  5.4433906701365109e-06  4.3397276152175113e-06  3.4018157694058839e-06  2.6215390279132502e-06  1.9848506056416255e-06  1.4712633121055743e-06  1.0467176462711487e-06  6.3314061605854583e-07  0.0000000000000000e+00  6.0000000000000002e-05  5.7830275590312730e-05  5.6938493837303606e-05  5.6626037837010993e-05  5.6477613813397376e-05  5.6349918855999147e-05  5.6184607527056226e-05  5.5947775558480655e-05  5.5611507263460051e-05  5.5149272145521535e-05  5.4536157942427218e-05  5.3750925922980336e-05  5.2778674657018106e-05  5.1613405138351309e-05  5.0259923352490883e-05  4.8734500619877046e-05  4.7062746064343508e-05  4.5263636053901650e-05  4.3207785119079133e-05  4.0195714458998112e-05  3.5943308024096082e-05  3.1709687022286016e-05  2.8080172404164138e-05  2.5133690852359099e-05  2.2764616550238206e-05  2.0842657235196074e-05  1.9252353385918738e-05  1.7903352187170955e-05  1.6745003711981860e-05  1.5818693963170626e-05  1.5431969428372364e-05  1.6660157445310749e-05  1.9740555008133728e-05  1.9770088786468465e-05  1.8536571238807650e-05  1.6879701521758916e-05  1.5082028379943341e-05  1.3259149372425900e-05  1.1474907487831663e-05  9.7744173946121695e-06  8.1923653890740157e-06  6.7543237381963348e-06  5.4766444941517096e-06  4.3666061559113535e-06  3.4231747519626128e-06  2.6382251161633152e-06  1.9976680206370048e-06  1.4809501806348935e-06  1.0539147414115532e-06  6.3811659896552666e-07  0.0000000000000000e+00  6.0000000000000002e-05  5.8026350672623870e-05  5.7194972928939936e-05  5.6900934115843047e-05  5.6758189187450903e-05  5.6632070845110048e-05  5.6466890779460046e-05  5.6229517087824998e-05  5.5892198164772229e-05  5.5428365328116708e-05  5.4813000678027552e-05  5.4024744070307372e-05  5.3048583969859622e-05  5.187844235808764