<?xml version="1.0"?>
<VTKFile type="UnstructuredGrid"  version="0.1"  >
<UnstructuredGrid>
<Piece  NumberOfPoints="2601" NumberOfCells="5000">
<Points>
<DataArray  type="Float64"  NumberOfComponents="3"  format="ascii">-1 0 0  -0.96 0 0  -0.92 0 0  -0.88 0 0  -0.84 0 0  -0.8 0 0  -0.76 0 0  -0.72 0 0  -0.6799999999999999 0 0  -0.64 0 0  -0.6 0 0  -0.5600000000000001 0 0  -0.52 0 0  -0.48 0 0  -0.4399999999999999 0 0  -0.4 0 0  -0.36 0 0  -0.32 0 0  -0.28 0 0  -0.24 0 0  -0.2 0 0  -0.16 0 0  -0.12 0 0  -0.07999999999999996 0 0  -0.04000000000000004 0 0  0 0 0  0.04000000000000004 0 0  0.08000000000000007 0 0  0.1200000000000001 0 0  0.1599999999999999 0 0  0.2 0 0  0.24 0 0  0.28 0 0  0.3200000000000001 0 0  0.3600000000000001 0 0  0.3999999999999999 0 0  0.4399999999999999 0 0  0.48 0 0  0.52 0 0  0.5600000000000001 0 0  0.6000000000000001 0 0  0.6399999999999999 0 0  0.6799999999999999 0 0  0.72 0 0  0.76 0 0  0.8 0 0  0.8400000000000001 0 0  0.8799999999999999 0 0  0.9199999999999999 0 0  0.96 0 0  1 0 0  -1 0.016 0  -0.96 0.016 0  -0.92 0.016 0  -0.88 0.016 0  -0.84 0.016 0  -0.8 0.016 0  -0.76 0.016 0  -0.72 0.016 0  -0.6799999999999999 0.016 0  -0.64 0.016 0  -0.6 0.016 0  -0.5600000000000001 0.016 0  -0.52 0.016 0  -0.48 0.016 0  -0.4399999999999999 0.016 0  -0.4 0.016 0  -0.36 0.016 0  -0.32 0.016 0  -0.28 0.016 0  -0.24 0.016 0  -0.2 0.016 0  -0.16 0.016 0  -0.12 0.016 0  -0.07999999999999996 0.016 0  -0.04000000000000004 0.016 0  0 0.016 0  0.04000000000000004 0.016 0  0.08000000000000007 0.016 0  0.1200000000000001 0.016 0  0.1599999999999999 0.016 0  0.2 0.016 0  0.24 0.016 0  0.28 0.016 0  0.3200000000000001 0.016 0  0.3600000000000001 0.016 0  0.3999999999999999 0.016 0  0.4399999999999999 0.016 0  0.48 0.016 0  0.52 0.016 0  0.5600000000000001 0.016 0  0.6000000000000001 0.016 0  0.6399999999999999 0.016 0  0.6799999999999999 0.016 0  0.72 0.016 0  0.76 0.016 0  0.8 0.016 0  0.8400000000000001 0.016 0  0.8799999999999999 0.016 0  0.9199999999999999 0.016 0  0.96 0.016 0  1 0.016 0  -1 0.032 0  -0.96 0.032 0  -0.92 0.032 0  -0.88 0.032 0  -0.84 0.032 0  -0.8 0.032 0  -0.76 0.032 0  -0.72 0.032 0  -0.6799999999999999 0.032 0  -0.64 0.032 0  -0.6 0.032 0  -0.5600000000000001 0.032 0  -0.52 0.032 0  -0.48 0.032 0  -0.4399999999999999 0.032 0  -0.4 0.032 0  -0.36 0.032 0  -0.32 0.032 0  -0.28 0.032 0  -0.24 0.032 0  -0.2 0.032 0  -0.16 0.032 0  -0.12 0.032 0  -0.07999999999999996 0.032 0  -0.04000000000000004 0.032 0  0 0.032 0  0.04000000000000004 0.032 0  0.08000000000000007 0.032 0  0.1200000000000001 0.032 0  0.1599999999999999 0.032 0  0.2 0.032 0  0.24 0.032 0  0.28 0.032 0  0.3200000000000001 0.032 0  0.3600000000000001 0.032 0  0.3999999999999999 0.032 0  0.4399999999999999 0.032 0  0.48 0.032 0  0.52 0.032 0  0.5600000000000001 0.032 0  0.6000000000000001 0.032 0  0.6399999999999999 0.032 0  0.6799999999999999 0.032 0  0.72 0.032 0  0.76 0.032 0  0.8 0.032 0  0.8400000000000001 0.032 0  0.8799999999999999 0.032 0  0.9199999999999999 0.032 0  0.96 0.032 0  1 0.032 0  -1 0.04800000000000001 0  -0.96 0.04800000000000001 0  -0.92 0.04800000000000001 0  -0.88 0.04800000000000001 0  -0.84 0.04800000000000001 0  -0.8 0.04800000000000001 0  -0.76 0.04800000000000001 0  -0.72 0.04800000000000001 0  -0.6799999999999999 0.04800000000000001 0  -0.64 0.04800000000000001 0  -0.6 0.04800000000000001 0  -0.5600000000000001 0.04800000000000001 0  -0.52 0.04800000000000001 0  -0.48 0.04800000000000001 0  -0.4399999999999999 0.04800000000000001 0  -0.4 0.04800000000000001 0  -0.36 0.04800000000000001 0  -0.32 0.04800000000000001 0  -0.28 0.04800000000000001 0  -0.24 0.04800000000000001 0  -0.2 0.04800000000000001 0  -0.16 0.04800000000000001 0  -0.12 0.04800000000000001 0  -0.07999999999999996 0.04800000000000001 0  -0.04000000000000004 0.04800000000000001 0  0 0.04800000000000001 0  0.04000000000000004 0.04800000000000001 0  0.08000000000000007 0.04800000000000001 0  0.1200000000000001 0.04800000000000001 0  0.1599999999999999 0.04800000000000001 0  0.2 0.04800000000000001 0  0.24 0.04800000000000001 0  0.28 0.04800000000000001 0  0.3200000000000001 0.04800000000000001 0  0.3600000000000001 0.04800000000000001 0  0.3999999999999999 0.04800000000000001 0  0.4399999999999999 0.04800000000000001 0  0.48 0.04800000000000001 0  0.52 0.04800000000000001 0  0.5600000000000001 0.04800000000000001 0  0.6000000000000001 0.04800000000000001 0  0.6399999999999999 0.04800000000000001 0  0.6799999999999999 0.04800000000000001 0  0.72 0.04800000000000001 0  0.76 0.04800000000000001 0  0.8 0.04800000000000001 0  0.8400000000000001 0.04800000000000001 0  0.8799999999999999 0.04800000000000001 0  0.9199999999999999 0.04800000000000001 0  0.96 0.04800000000000001 0  1 0.04800000000000001 0  -1 0.064 0  -0.96 0.064 0  -0.92 0.064 0  -0.88 0.064 0  -0.84 0.064 0  -0.8 0.064 0  -0.76 0.064 0  -0.72 0.064 0  -0.6799999999999999 0.064 0  -0.64 0.064 0  -0.6 0.064 0  -0.5600000000000001 0.064 0  -0.52 0.064 0  -0.48 0.064 0  -0.4399999999999999 0.064 0  -0.4 0.064 0  -0.36 0.064 0  -0.32 0.064 0  -0.28 0.064 0  -0.24 0.064 0  -0.2 0.064 0  -0.16 0.064 0  -0.12 0.064 0  -0.07999999999999996 0.064 0  -0.04000000000000004 0.064 0  0 0.064 0  0.04000000000000004 0.064 0  0.08000000000000007 0.064 0  0.1200000000000001 0.064 0  0.1599999999999999 0.064 0  0.2 0.064 0  0.24 0.064 0  0.28 0.064 0  0.3200000000000001 0.064 0  0.3600000000000001 0.064 0  0.3999999999999999 0.064 0  0.4399999999999999 0.064 0  0.48 0.064 0  0.52 0.064 0  0.5600000000000001 0.064 0  0.6000000000000001 0.064 0  0.6399999999999999 0.064 0  0.6799999999999999 0.064 0  0.72 0.064 0  0.76 0.064 0  0.8 0.064 0  0.8400000000000001 0.064 0  0.8799999999999999 0.064 0  0.9199999999999999 0.064 0  0.96 0.064 0  1 0.064 0  -1 0.08 0  -0.96 0.08 0  -0.92 0.08 0  -0.88 0.08 0  -0.84 0.08 0  -0.8 0.08 0  -0.76 0.08 0  -0.72 0.08 0  -0.6799999999999999 0.08 0  -0.64 0.08 0  -0.6 0.08 0  -0.5600000000000001 0.08 0  -0.52 0.08 0  -0.48 0.08 0  -0.4399999999999999 0.08 0  -0.4 0.08 0  -0.36 0.08 0  -0.32 0.08 0  -0.28 0.08 0  -0.24 0.08 0  -0.2 0.08 0  -0.16 0.08 0  -0.12 0.08 0  -0.07999999999999996 0.08 0  -0.04000000000000004 0.08 0  0 0.08 0  0.04000000000000004 0.08 0  0.08000000000000007 0.08 0  0.1200000000000001 0.08 0  0.1599999999999999 0.08 0  0.2 0.08 0  0.24 0.08 0  0.28 0.08 0  0.3200000000000001 0.08 0  0.3600000000000001 0.08 0  0.3999999999999999 0.08 0  0.4399999999999999 0.08 0  0.48 0.08 0  0.52 0.08 0  0.5600000000000001 0.08 0  0.6000000000000001 0.08 0  0.6399999999999999 0.08 0  0.6799999999999999 0.08 0  0.72 0.08 0  0.76 0.08 0  0.8 0.08 0  0.8400000000000001 0.08 0  0.8799999999999999 0.08 0  0.9199999999999999 0.08 0  0.96 0.08 0  1 0.08 0  -1 0.09600000000000002 0  -0.96 0.09600000000000002 0  -0.92 0.09600000000000002 0  -0.88 0.09600000000000002 0  -0.84 0.09600000000000002 0  -0.8 0.09600000000000002 0  -0.76 0.09600000000000002 0  -0.72 0.09600000000000002 0  -0.6799999999999999 0.09600000000000002 0  -0.64 0.09600000000000002 0  -0.6 0.09600000000000002 0  -0.5600000000000001 0.09600000000000002 0  -0.52 0.09600000000000002 0  -0.48 0.09600000000000002 0  -0.4399999999999999 0.09600000000000002 0  -0.4 0.09600000000000002 0  -0.36 0.09600000000000002 0  -0.32 0.09600000000000002 0  -0.28 0.09600000000000002 0  -0.24 0.09600000000000002 0  -0.2 0.09600000000000002 0  -0.16 0.09600000000000002 0  -0.12 0.09600000000000002 0  -0.07999999999999996 0.09600000000000002 0  -0.04000000000000004 0.09600000000000002 0  0 0.09600000000000002 0  0.04000000000000004 0.09600000000000002 0  0.08000000000000007 0.09600000000000002 0  0.1200000000000001 0.09600000000000002 0  0.1599999999999999 0.09600000000000002 0  0.2 0.09600000000000002 0  0.24 0.09600000000000002 0  0.28 0.09600000000000002 0  0.3200000000000001 0.09600000000000002 0  0.3600000000000001 0.09600000000000002 0  0.3999999999999999 0.09600000000000002 0  0.4399999999999999 0.09600000000000002 0  0.48 0.09600000000000002 0  0.52 0.09600000000000002 0  0.5600000000000001 0.09600000000000002 0  0.6000000000000001 0.09600000000000002 0  0.6399999999999999 0.09600000000000002 0  0.6799999999999999 0.09600000000000002 0  0.72 0.09600000000000002 0  0.76 0.09600000000000002 0  0.8 0.09600000000000002 0  0.8400000000000001 0.09600000000000002 0  0.8799999999999999 0.09600000000000002 0  0.9199999999999999 0.09600000000000002 0  0.96 0.09600000000000002 0  1 0.09600000000000002 0  -1 0.112 0  -0.96 0.112 0  -0.92 0.112 0  -0.88 0.112 0  -0.84 0.112 0  -0.8 0.112 0  -0.76 0.112 0  -0.72 0.112 0  -0.6799999999999999 0.112 0  -0.64 0.112 0  -0.6 0.112 0  -0.5600000000000001 0.112 0  -0.52 0.112 0  -0.48 0.112 0  -0.4399999999999999 0.112 0  -0.4 0.112 0  -0.36 0.112 0  -0.32 0.112 0  -0.28 0.112 0  -0.24 0.112 0  -0.2 0.112 0  -0.16 0.112 0  -0.12 0.112 0  -0.07999999999999996 0.112 0  -0.04000000000000004 0.112 0  0 0.112 0  0.04000000000000004 0.112 0  0.08000000000000007 0.112 0  0.1200000000000001 0.112 0  0.1599999999999999 0.112 0  0.2 0.112 0  0.24 0.112 0  0.28 0.112 0  0.3200000000000001 0.112 0  0.3600000000000001 0.112 0  0.3999999999999999 0.112 0  0.4399999999999999 0.112 0  0.48 0.112 0  0.52 0.112 0  0.5600000000000001 0.112 0  0.6000000000000001 0.112 0  0.6399999999999999 0.112 0  0.6799999999999999 0.112 0  0.72 0.112 0  0.76 0.112 0  0.8 0.112 0  0.8400000000000001 0.112 0  0.8799999999999999 0.112 0  0.9199999999999999 0.112 0  0.96 0.112 0  1 0.112 0  -1 0.128 0  -0.96 0.128 0  -0.92 0.128 0  -0.88 0.128 0  -0.84 0.128 0  -0.8 0.128 0  -0.76 0.128 0  -0.72 0.128 0  -0.6799999999999999 0.128 0  -0.64 0.128 0  -0.6 0.128 0  -0.5600000000000001 0.128 0  -0.52 0.128 0  -0.48 0.128 0  -0.4399999999999999 0.128 0  -0.4 0.128 0  -0.36 0.128 0  -0.32 0.128 0  -0.28 0.128 0  -0.24 0.128 0  -0.2 0.128 0  -0.16 0.128 0  -0.12 0.128 0  -0.07999999999999996 0.128 0  -0.04000000000000004 0.128 0  0 0.128 0  0.04000000000000004 0.128 0  0.08000000000000007 0.128 0  0.1200000000000001 0.128 0  0.1599
[...]
<PointData  Scalars="f_100"> 
<DataArray  type="Float64"  Name="f_100"  format="ascii">6.0000000000000002e-05  5.4167962241663362e-05  5.2683576725784036e-05  5.1880580931786540e-05  5.1101390932290023e-05  5.0105639487259691e-05  4.8798460772964261e-05  4.7156816174901237e-05  4.5209417130330711e-05  4.3027202216437551e-05  4.0711433330507324e-05  3.8377599787524242e-05  3.6137712136665721e-05  3.4084685152374269e-05  3.2281664502459729e-05  3.0757196250672421e-05  2.9503746995354131e-05  2.8462032587171879e-05  2.7406607348024823e-05  2.2418444072351822e-05  1.6496529817535109e-05  1.3752658499062627e-05  1.1791991725976561e-05  1.0206715753133134e-05  8.8284400175455128e-06  7.5757928077045732e-06  6.4139111409564873e-06  5.3373457455598260e-06  4.3641714246386071e-06  3.5508018917690959e-06  3.0766575236545459e-06  3.6926085413734615e-06  4.7271819040653391e-06  4.1636901803224011e-06  3.2264845093190671e-06  2.3445352771602935e-06  1.6347267577884523e-06  1.1033283100010369e-06  7.2355462400051561e-07  4.6193688545034661e-07  2.8745831467103806e-07  1.7452892372220927e-07  1.0347431584210960e-07  5.9954463826546775e-08  3.3976080373677497e-08  1.8845810880551485e-08  1.0238472943201607e-08  5.4476419027017044e-09  2.8178604510037942e-09  1.2996222086165529e-09  0.0000000000000000e+00  6.0000000000000002e-05  5.4442273376650695e-05  5.2950752195323009e-05  5.2143771714372593e-05  5.1361738790496477e-05  5.0362535999221403e-05  4.9050527740053758e-05  4.7402320896010276e-05  4.5446550514624424e-05  4.3254329665771938e-05  4.0927316606698537e-05  3.8581556949514233e-05  3.6329687285987288e-05  3.4265220041195014e-05  3.2451786748068526e-05  3.0918255597568492e-05  2.9657244623979731e-05  2.8609630542355623e-05  2.7536540337462841e-05  2.3000131278192581e-05  1.7314442243196542e-05  1.4438658203711352e-05  1.2377045707398970e-05  1.0713866573216562e-05  9.2703727444456008e-06  7.9596521400899047e-06  6.7440081028734435e-06  5.6168216095172204e-06  4.5959545098157009e-06  3.7377699067453267e-06  3.2204894991257518e-06  3.7379556081169375e-06  4.7528606124378217e-06  4.1900928763676114e-06  3.2477407110187290e-06  2.3603736507358042e-06  1.6460029767896526e-06  1.1110839052814405e-06  7.2873080239868553e-07  4.6529655786724090e-07  2.8958187253189512e-07  1.7583737816514952e-07  1.0426095268211905e-07  6.0416293236463892e-08  3.4241075747636082e-08  1.8994539105141132e-08  1.0320186840579837e-08  5.4916344679032835e-09  2.8411402195145622e-09  1.3120332445047830e-09  0.0000000000000000e+00  6.0000000000000002e-05  5.4712532101624122e-05  5.3217102331474914e-05  5.2407599479248592e-05  5.1623178620721306e-05  5.0620658817023850e-05  4.9303849668873656e-05  4.7649070693179105e-05  4.5684901398432179e-05  4.3482636078079302e-05  4.1144332211333317e-05  3.8786593914966961e-05  3.6522686244646260e-05  3.4446721957476307e-05  3.2622821266329913e-05  3.1080178339140284e-05  2.9811577799369307e-05  2.8758172940340195e-05  2.7671078494387964e-05  2.3532331139782205e-05  1.8125608164795820e-05  1.5123008522096529e-05  1.2966823562131015e-05  1.1228811516304723e-05  9.7215820752847739e-06  8.3533557438547329e-06  7.0838951376568974e-06  5.9055737981333262e-06  4.8361417656084838e-06  3.9319215064780555e-06  3.3691809565510595e-06  3.7961673765901893e-06  4.7834804463018593e-06  4.2182099611630781e-06  3.2696052322877188e-06  2.3764623544368429e-06  1.6574047628190624e-06  1.1189132059465660e-06  7.3395386703709213e-07  4.6868678115299032e-07  2.9172524374712137e-07  1.7715846538058969e-07  1.0505547072544989e-07  6.0882926467987410e-08  3.4508931411975328e-08  1.9144931643660666e-08  1.0402847779086950e-08  5.5361545942044239e-09  2.8647055748422074e-09  1.3245410004006331e-09  0.0000000000000000e+00  6.0000000000000002e-05  5.4977941894342224e-05  5.3482587024957371e-05  5.2672058447442598e-05  5.1885714414027633e-05  5.0880015355589447e-05  4.9558435270696252e-05  4.7897074678201657e-05  4.5924478736958851e-05  4.3712129807986670e-05  4.1362487553669890e-05  3.8992716938301094e-05  3.6716714062066975e-05  3.4629194846314251e-05  3.2794771107621899e-05  3.1242966857074888e-05  2.9966748113468476e-05  2.8907651042625100e-05  2.7809931592079243e-05  2.4021767542049906e-05  1.8909717970824942e-05  1.5802065862626078e-05  1.3559754756441668e-05  1.1750755216432356e-05  1.0181706107999353e-05  8.7568075842420305e-06  7.4336401258219938e-06  6.2037661106269449e-06  5.0849503747458534e-06  4.1335213907170297e-06  3.5233369810631561e-06  3.8657956225063198e-06  4.8191205187072067e-06  4.2480691030104357e-06  3.2920869957295954e-06  2.3928031155632445e-06  1.6689317355656067e-06  1.1268153342540769e-06  7.3922294193737859e-07  4.7210682556600847e-07  2.9388786975632789e-07  1.7849178107669469e-07  1.0585759001740342e-07  6.1354176954642420e-08  3.4779527262046830e-08  1.9296913596734023e-08  1.0486410387926332e-08  5.5811754121983632e-09  2.8885404299310244e-09  1.3371330014919770e-09  0.0000000000000000e+00  6.0000000000000002e-05  5.5237944172377699e-05  5.3747182305872017e-05  5.2937146792511819e-05  5.2149351201577116e-05  5.1140613092819976e-05  4.9814292966408858e-05  4.8146341550102812e-05  4.6165291065332822e-05  4.3942818859912996e-05  4.1581789817253334e-05  3.9199932203240939e-05  3.6911775876206672e-05  3.4812642880710131e-05  3.2967639652528418e-05  3.1406623921396458e-05  3.0122757566396422e-05  2.9058059212040865e-05  2.7952807409981121e-05  2.4474414887366250e-05  1.9656980512749257e-05  1.6473214206186656e-05  1.4154486294372767e-05  1.2279000497072271e-05  1.0650440079845696e-05  9.1699503133439521e-06  7.7933408272986498e-06  6.5115877772480397e-06  5.3426182577115364e-06  4.3428410489105477e-06  3.6834716293532901e-06  3.9457937299856075e-06  4.8598427726145133e-06  4.2796911471441574e-06  3.3151924757499320e-06  2.4093971633457277e-06  1.6805835868559876e-06  1.1347896133279987e-06  7.4453735005932279e-07  4.7555612405396598e-07  2.9606931432648867e-07  1.7983700817726189e-07  1.0666709025771092e-07  6.1829897492083607e-08  3.5052768331253028e-08  1.9450425640421887e-08  1.0570838681452075e-08  5.6266755862314626e-09  2.9126320122817117e-09  1.3498001722244903e-09  0.0000000000000000e+00  6.0000000000000002e-05  5.5492174953672687e-05  5.4010878246421232e-05  5.3202866445130429e-05  5.2414095035072487e-05  5.1402459614272151e-05  5.0071430959499866e-05  4.8396879679197794e-05  4.6407346580890063e-05  4.4174710957252130e-05  4.1802246006936329e-05  3.9408245842276921e-05  3.7107876904514838e-05  3.4997070427309401e-05  3.3141430558624825e-05  3.1571152624855903e-05  3.0279608482456766e-05  2.9209394029928299e-05  2.8099419354285963e-05  2.4895504840811426e-05  2.0363717421707563e-05  1.7134361688741290e-05  1.4749817530537290e-05  1.2812923592957902e-05  1.1127524489122310e-05  9.5927599598791524e-06  8.1631228990621781e-06  6.8292529801565945e-06  5.6094049222377654e-06  4.5601643809521615e-06  3.8500361041700004e-06  4.0354105996060220e-06  4.9056918563335290e-06  4.3130902694791822e-06  3.3389257985230154e-06  2.4262452208072502e-06  1.6923600401720432e-06  1.1428355235097333e-06  7.4989657552639982e-07  4.7903424245472392e-07  2.9826924136390424e-07  1.8119390102466230e-07  1.0748379998008627e-07  6.2309973081332740e-08  3.5328580208287959e-08  1.9605421179086268e-08  1.0656104339071320e-08  5.6726382979335244e-09  2.9369702575722017e-09  1.3625361874010977e-09  0.0000000000000000e+00  6.0000000000000002e-05  5.5740428891519662e-05  5.4273677486741966e-05  5.3469222934844920e-05  5.2679952970441378e-05  5.1665562649943300e-05  5.0329857296197389e-05  4.8648697176314860e-05  4.6650653210867194e-05  4.4407813599202851e-05  4.2023862987400095e-05  3.9617663952464592e-05  3.7305022436274934e-05  3.5182482018024429e-05  3.3316147716573156e-05  3.1736556328965672e-05  3.0437303442851582e-05  2.9361653589541787e-05  2.8249491790026457e-05  2.5289576890979605e-05  2.1029724747295958e-05  1.7783794778976104e-05  1.5344682955544254e-05  1.3351966929057789e-05  1.1612742390511597e-05  1.0025245654866820e-05  8.5431407603689532e-06  7.1570020947164938e-06  5.8855931384229849e-06  4.7857916758690740e-06  4.0234397597848482e-06  4.1341142163472020e-06  4.9566956638098799e-06  4.3482740931250656e-06  3.3632888249281158e-06  2.4433474979692613e-06  1.7042608173633191e-06  1.1509526665244228e-06  7.5530023264441958e-07  4.8254085507520267e-07  3.0048739674340904e-07  1.8256227245155302e-07  1.0830758770244459e-07  6.2794315079033829e-08  3.5606905293536140e-08  1.9761864020935040e-08  1.0742185301704532e-08  5.7190504172433063e-09  2.9615473154318885e-09  1.3753369414550197e-09  0.0000000000000000e+00  6.0000000000000002e-05  5.5982629479074572e-05  5.4535594201205870e-05  5.3736225257575662e-05  5.2946933053214049e-05  5.1929930104249367e-05  5.0589579914928767e-05  4.8901801949775878e-05  4.6895218668088035e-05  4.4642134107455057e-05  4.2246647514716665e-05  3.9828192608253896e-05  3.7503217826126999e-05  3.5368882326535569e-05  3.3491795213903544e-05  3.1902838619627064e-05  3.0595845231774729e-05  2.9514836937452988e-05  2.8402763578020197e-05  2.5660548383163022e-05  2.1656700515633620e-05  1.8420160416595995e-05  1.5938153151166739e-05  1.3895640626737947e-05  1.2105921526955832e-05  1.0467452082001798e-05  8.9335800418037786e-06  7.4951039221832175e-06  6.1714911130437022e-06  5.0200427502064258e-06  4.2040660264007553e-06  4.2415365051715629e-06  5.0128662124081112e-06  4.3852437762847830e-06  3.3882812209635918e-06  2.4607036867716962e-06  1.7162856114534436e-06  1.1591407361140331e-06  7.6074804050574904e-07  4.8607572468138541e-07  3.0272359342838841e-07  1.8394198320053556e-07  1.0913835468885324e-07  6.3282856415977661e-08  3.5887699740928349e-08  1.9919726480264638e-08  1.0829064626528564e-08  5.7659018263309054e-09  2.9863571465427092e-09  1.3882001150391792e-09  0.0000000000000000e+00  6.0000000000000002e-05  5.6218804413725019e-05  5.4796653367944792e-05  5.4003885760346977e-05  5.3215044304394312e-05  5.2195570080108605e-05  5.0850606686894620e-05  4.9156201752273133e-05  4.7141050496770382e-05  4.4877679664546592e-05  4.2470606262214224e-05  4.0039837871909997e-05  3.7702468488597484e-05  3.5556276148836548e-05  3.3668377305140870e-05  3.2070003270659977e-05  3.0755236793239665e-05  2.9668943638307767e-05  2.8558990225296329e-05  2.6011790195451155e-05  2.2247314860129965e-05  1.9042477290866130e-05  1.6529442154432236e-05  1.4443528312400608e-05  1.2606939021370563e-05  1.0919463435921246e-05  9.3346609520562891e-06  7.8438585268298273e-06  6.4674349943744417e-06  5.2632597034608131e-06  4.3922846973652213e-06  4.3574334922398509e-06  5.0742006423973576e-06  4.4239940795027434e-06  3.4139005193241997e-06  2.4783129579691611e-06  1.7284340646213505e-06  1.1673994940259966e-06  7.6623980218748760e-07  4.8963868610666546e-07  3.0497769928648908e-07  1.8533293326541042e-07  1.0997602902958885e-07  6.3775547688710577e-08  3.6170930959673610e-08  2.0078987828024820e-08  1.0916729552443372e-08  5.8131848681960096e-09  3.0113951941069398e-09  1.4011248217354524e-09  0.0000000000000000e+00  6.0000000000000002e-05  5.6449065275329332e-05  5.5056890239604435e-05  5.4272220036879008e-05  5.3484296705895169e-05  5.2462490897902731e-05  5.1112945449240945e-05  4.9411904219404720e-05  4.7388156110202369e-05  4.5114457345380800e-05  4.2695745841679260e-05  4.0252605801981699e-05  3.7902779893486953e-05  3.5744668387132068e-05  3.3845898387169072e-05  3.2238054213843713e-05  3.0915481196539068e-05  2.9823973441593075e-05  2.8717944981254088e-05  2.6346200549681328e-05  2.2804667078383553e-05  1.9650139770969070e-05  1.7117916474862738e-05  1.4995294917438609e-05  1.3115727417409764e-05  1.1381408242345021e-05  9.7466422089054340e-06  8.2036004709125195e-06  6.7737916203996826e-06  5.5158095458206699e-06  4.5884615951283542e-06  4.4816564927227079e-06  5.1406821990881059e-06  4.4645134193221561e-06  3.4401421751519197e-06  2.4961739601835138e-06  1.7407057505903081e-06  1.1757287504416935e-06  7.7177538772916507e-07  4.9322963282840555e-07  3.0724962711346289e-07  1.8673505480499724e-07  1.1082056079908649e-07  6.4272353964648916e-08  3.6456575573257394e-08  2.0239633026703190e-08  1.1005170737447053e-08  5.8608938969217570e-09  3.0366581158697069e-09  1.4141113207053827e-09  0.0000000000000000e+00  6.0000000000000002e-05  5.6673590809602011e-05  5.5316349940521991e-05  5.4541246829270685e-05  5.3754701184826985e-05  5.2730701109967946e-05  5.1376604032057076e-05  4.9668916901321571e-05  4.7636542821728379e-05  4.5352474143129044e-05  4.2922072820742173e-05  4.0466502460187615e-05  3.8104157561987552e-05  3.5934064036513558e-05  3.4024362978918635e-05  3.2406995514322407e-05  3.1076581608665782e-05  2.9979926032081920e-05  2.8879419145638379e-05  2.6666273201505261e-05  2.3331975187115708e-05  2.0242905726230819e-05  1.7703103667777724e-05  1.5550695222016561e-05  1.3632281414774805e-05  1.1853464692192544e-05  1.0169825344369658e-05  8.5747023360174432e-06  7.0909614652872245e-06  5.7780868368151692e-06  4.7929663416690886e-06  4.6141312601944541e-06  5.2122811109103177e-06  4.5067839144517791e-06  3.4669996184164934e-06  2.5142848212295147e-06  1.7531001607839908e-06  1.1841283480899337e-06  7.7735472022096160e-07  4.9684850597950364e-07  3.0953932646566287e-07  1.8814830634376578e-07  1.1167191809524937e-07  6.4773252170221920e-08  3.6744617751859388e-08  2.0401651697260711e-08  1.1094381636237829e-08  5.9090249108049912e-09  3.0621435654471461e-09  1.4271607835922986e-09  0.0000000000000000e+00  6.0000000000000002e-05  5.6892613223006022e-05  5.5575087136360026e-05  5.4810987932191294e-05  5.4026269596097759e-05  5.3000209511168764e-05  5.1641590280216039e-05  4.9927247288683872e-05  4.7886217870229130e-05  4.5591736990523674e-05  4.3149593737139752e-05  4.0681533917020634e-05  3.8306607063420510e-05  3.6124468173936673e-05  3.4203775704621384e-05  3.2576831350430860e-05  3.1238541272367735e-05  3.0136800848338590e-05  2.9043221798618696e-05  2.6974158437959200e-05  2.3832404684615660e-05  2.0820870354585594e-05  1.8284699438233087e-05  1.6109582457166416e-05  1.4156664937423678e-05  1.2335866297856729e-05  1.0604559279523427e-05  8.9575784695235631e-06  7.4193817604556914e-06  6.0505164075014366e-06  5.0061787585774620e-06  4.7548428988228147e-06  5.2889553120262015e-06  4.5507814296376786e-06  3.4944643049261982e-06  2.5326431517809513e-06  1.7656166937137368e-06  1.1925981494229191e-06  7.8297776445277890e-07  5.0049528535758275e-07  3.1184677697383450e-07  1.8957266802529633e-07  1.1253008379930465e-07  6.5278228955346760e-08  3.7035047849667688e-08  2.0565037275426972e-08  1.1184357992181260e-08  5.9575752530415941e-09  3.0878500137973096e-09  1.4402751060360813e-09  0.0000000000000000e+00  6.0000000000000002e-05  5.7106406991998281e-05  5.5833165738066635e-05  5.5081468096887610e-05  5.4299014702923337e-05  5.3271025146024476e-05  5.1907912070899603e-05  5.0186902833915210e-05  4.8137188441071453e-05  4.5832252777367794e-05  4.3378315110422622e-05  4.0897706256314355e-05  3.8510134012499593e-05  3.6315885949105216e-05  3.4384141280008432e-05  3.2747565997162180e-05  3.1401363488781337e-05  3.0294596956085527e-05  2.9209179117100571e-05  2.7271716543716326e-05  2.4308980184686473e-05  2.1384431272142836e-05  1.8862572783540853e-05  1.6671916590246929e-05  1.4689018329237546e-05  1.2828907761963996e-05  1.1051245109306076e-05  9.3526889213865462e-06  7.7595297774306357e-06  6.3335562025122821e-06  5.2284942811832275e-06  4.9038249583300791e-06  5.3706509815317690e-06  4.5964756216445738e-06  3.5225257675934259e-06  2.5512460514063663e-06  1.7782546471480322e-06  1.2011380263409707e-06  7.8864451767238902e-07  5.0416998207294185e-07  3.1417198286989013e-07  1.9100813772694065e-07  1.1339505292459362e-07  6.5787278946970402e-08  3.7327861291079366e-08  2.0729786322480335e-08  1.1275097422528049e-08  6.0065433674645452e-09  3.1137766033686158e-09  1.4534567558525883e-09  0.0000000000000000e+00  6.0000000000000002e-05  5.7315279770351840e-05  5.6090658613954952e-05  5.5352714932985732e-05  5.4572950154956015e-05  5.3543157312788500e-05  5.2175577327506684e-05  5.0447890968569844e-05  4.8389461683331065e-05  4.6074028364941018e-05  4.3608243451573489e-05  4.1115025578969927e-05  3.8714744067040162e-05  3.6508322576933213e-05  3.4565464500935124e-05  3.2919203812635491e-05  3.1565051603803181e-05  3.0453312965369194e-05  2.9377133403773431e-05  2.7560564058354915e-05  2.4764545938117629e-05  2.1934250023307962e-05  1.9436769029385977e-05  1.7237772098024859e-05  1.5229565557007602e-05  1.3332950992697738e-05  1.1510341061231096e-05  9.7605435503958479e-06  8.1119262650973877e-06  6.6277002590685346e-06  5.4603286709960397e-06  5.0611515742839871e-06  5.4573028865843688e-06  4.6438299910969645e-06  3.5511716692679877e-06  2.5700901169734834e-06  1.7910132126872094e-06  1.2097478520417030e-06  7.9435500208115433e-07  5.0787263254071912e-07  3.1651496850667969e-07  1.9245472787870203e-07  1.1426683044655261e-07  6.6300403320285098e-08  3.7623057659992793e-08  2.0895897962015381e-08  1.1366599079638636e-08  6.0559285991300138e-09  3.1399230288418190e-09  1.4667086513228274e-09  0.0000000000000000e+00  6.0000000000000002e-05  5.7519565046056097e-05  5.6347647292568295e-05  5.5624758806580031e-05  5.4848090463831048e-05  5.3816615564824063e-05  5.2444594030525522e-05  5.0710219117486763e-05  4.8643044723950043e-05  4.6317070597859817e-05  4.3839385270917835e-05  4.1333498006003581e-05  3.8920442926045261e-05  3.6701783331312819e-05  3.4747750234006400e-05  3.3091749227033874e-05  3.1729608997529076e-05  3.0612946982332080e-05  2.9546941925088682e-05  2.7842113469587261e-05  2.5201754785363281e-05  2.2471213989839478e-05  2.0007510871240317e-05  1.7807345140135460e-05  1.5778621349202013e-05  1.3848431223630165e-05  1.1982367604432481e-05  1.0181706286398932e-05  8.4771390365930995e-06  6.9334818304956881e-06  5.7021222388592916e-06  5.2269318333300833e-06  5.5488345264790219e-06  4.6928019434145643e-06  3.5803878581909994e-06  2.5891714533976449e-06  1.8038914724257022e-06  1.2184274946427253e-06  8.0010925876160617e-07  5.1160329357537390e-07  3.1887577469030753e-07  1.9391246285766970e-07  1.1514542952564143e-07  6.6817608629183992e-08  3.7920639954733292e-08  2.1063373419401526e-08  1.1458863374126247e-08  6.1057310314186214e-09  3.1662894395046551e-09  1.4800340641842065e-09  0.0000000000000000e+00  6.0000000000000002e-05  5.7719616256074912e-05  5.6604221645506896e-05  5.5897632733500187e-05  5.5124450976003729e-05  5.4091409709571616e-05  5.2714970225852496e-05  5.0973894710287298e-05  4.8897944679374964e-05  4.6561386313851964e-05  4.4071747084640183e-05  4.1553129681045863e-05  3.9127236328109981e-05  3.6896273539961312e-05  3.4931003408849403e-05  3.3265206733575165e-05  3.1895039076222915e-05  3.0773496588021217e-05  2.9718475630189286e-05  2.8117607113930704e-05  2.5623073274973879e-05  2.2996401347754860e-05  2.0575197717030189e-05  1.8380960115211439e-05  1.6336598228552772e-05  1.4375863209627035e-05  1.2467912692288916e-05  1.0616799538853188e-05  8.8557867023101659e-06  7.2514766575355724e-06  5.9543437393624787e-06  5.4013057704993537e-06  5.6451580805998062e-06  4.7433428616895478e-06  3.6101584269035363e-06  2.6084856866904391e-06  1.8168883974330897e-06  1.2271768122871480e-06  8.0590734278505114e-07  5.1536203838868236e-07  3.2125445567687261e-07  1.9538137685248753e-07  1.1603087005090258e-07  6.7338905848100941e-08  3.8220613977952882e-08  2.1232215644876696e-08  1.1551891748400788e-08  6.1559513528433697e-09  3.1928763592112127e-09  1.4934365428601195e-09  0.0000000000000000e+00  6.0000000000000002e-05  5.7915802114780998e-05  5.6860479544084131e-05  5.6171372266961338e-05  5.5402047842811048e-05  5.4367549805364976e-05  5.2986714030960888e-05  5.1238925190677318e-05  4.9154168665126235e-05  4.6806982351823901e-05  4.4305335420163361e-05  4.1773926772398490e-05  3.9335130050094068e-05  3.709179858015906