<?xml version="1.0"?>
<VTKFile type="UnstructuredGrid"  version="0.1"  >
<UnstructuredGrid>
<Piece  NumberOfPoints="2601" NumberOfCells="5000">
<Points>
<DataArray  type="Float64"  NumberOfComponents="3"  format="ascii">-1 0 0  -0.96 0 0  -0.92 0 0  -0.88 0 0  -0.84 0 0  -0.8 0 0  -0.76 0 0  -0.72 0 0  -0.6799999999999999 0 0  -0.64 0 0  -0.6 0 0  -0.5600000000000001 0 0  -0.52 0 0  -0.48 0 0  -0.4399999999999999 0 0  -0.4 0 0  -0.36 0 0  -0.32 0 0  -0.28 0 0  -0.24 0 0  -0.2 0 0  -0.16 0 0  -0.12 0 0  -0.07999999999999996 0 0  -0.04000000000000004 0 0  0 0 0  0.04000000000000004 0 0  0.08000000000000007 0 0  0.1200000000000001 0 0  0.1599999999999999 0 0  0.2 0 0  0.24 0 0  0.28 0 0  0.3200000000000001 0 0  0.3600000000000001 0 0  0.3999999999999999 0 0  0.4399999999999999 0 0  0.48 0 0  0.52 0 0  0.5600000000000001 0 0  0.6000000000000001 0 0  0.6399999999999999 0 0  0.6799999999999999 0 0  0.72 0 0  0.76 0 0  0.8 0 0  0.8400000000000001 0 0  0.8799999999999999 0 0  0.9199999999999999 0 0  0.96 0 0  1 0 0  -1 0.016 0  -0.96 0.016 0  -0.92 0.016 0  -0.88 0.016 0  -0.84 0.016 0  -0.8 0.016 0  -0.76 0.016 0  -0.72 0.016 0  -0.6799999999999999 0.016 0  -0.64 0.016 0  -0.6 0.016 0  -0.5600000000000001 0.016 0  -0.52 0.016 0  -0.48 0.016 0  -0.4399999999999999 0.016 0  -0.4 0.016 0  -0.36 0.016 0  -0.32 0.016 0  -0.28 0.016 0  -0.24 0.016 0  -0.2 0.016 0  -0.16 0.016 0  -0.12 0.016 0  -0.07999999999999996 0.016 0  -0.04000000000000004 0.016 0  0 0.016 0  0.04000000000000004 0.016 0  0.08000000000000007 0.016 0  0.1200000000000001 0.016 0  0.1599999999999999 0.016 0  0.2 0.016 0  0.24 0.016 0  0.28 0.016 0  0.3200000000000001 0.016 0  0.3600000000000001 0.016 0  0.3999999999999999 0.016 0  0.4399999999999999 0.016 0  0.48 0.016 0  0.52 0.016 0  0.5600000000000001 0.016 0  0.6000000000000001 0.016 0  0.6399999999999999 0.016 0  0.6799999999999999 0.016 0  0.72 0.016 0  0.76 0.016 0  0.8 0.016 0  0.8400000000000001 0.016 0  0.8799999999999999 0.016 0  0.9199999999999999 0.016 0  0.96 0.016 0  1 0.016 0  -1 0.032 0  -0.96 0.032 0  -0.92 0.032 0  -0.88 0.032 0  -0.84 0.032 0  -0.8 0.032 0  -0.76 0.032 0  -0.72 0.032 0  -0.6799999999999999 0.032 0  -0.64 0.032 0  -0.6 0.032 0  -0.5600000000000001 0.032 0  -0.52 0.032 0  -0.48 0.032 0  -0.4399999999999999 0.032 0  -0.4 0.032 0  -0.36 0.032 0  -0.32 0.032 0  -0.28 0.032 0  -0.24 0.032 0  -0.2 0.032 0  -0.16 0.032 0  -0.12 0.032 0  -0.07999999999999996 0.032 0  -0.04000000000000004 0.032 0  0 0.032 0  0.04000000000000004 0.032 0  0.08000000000000007 0.032 0  0.1200000000000001 0.032 0  0.1599999999999999 0.032 0  0.2 0.032 0  0.24 0.032 0  0.28 0.032 0  0.3200000000000001 0.032 0  0.3600000000000001 0.032 0  0.3999999999999999 0.032 0  0.4399999999999999 0.032 0  0.48 0.032 0  0.52 0.032 0  0.5600000000000001 0.032 0  0.6000000000000001 0.032 0  0.6399999999999999 0.032 0  0.6799999999999999 0.032 0  0.72 0.032 0  0.76 0.032 0  0.8 0.032 0  0.8400000000000001 0.032 0  0.8799999999999999 0.032 0  0.9199999999999999 0.032 0  0.96 0.032 0  1 0.032 0  -1 0.04800000000000001 0  -0.96 0.04800000000000001 0  -0.92 0.04800000000000001 0  -0.88 0.04800000000000001 0  -0.84 0.04800000000000001 0  -0.8 0.04800000000000001 0  -0.76 0.04800000000000001 0  -0.72 0.04800000000000001 0  -0.6799999999999999 0.04800000000000001 0  -0.64 0.04800000000000001 0  -0.6 0.04800000000000001 0  -0.5600000000000001 0.04800000000000001 0  -0.52 0.04800000000000001 0  -0.48 0.04800000000000001 0  -0.4399999999999999 0.04800000000000001 0  -0.4 0.04800000000000001 0  -0.36 0.04800000000000001 0  -0.32 0.04800000000000001 0  -0.28 0.04800000000000001 0  -0.24 0.04800000000000001 0  -0.2 0.04800000000000001 0  -0.16 0.04800000000000001 0  -0.12 0.04800000000000001 0  -0.07999999999999996 0.04800000000000001 0  -0.04000000000000004 0.04800000000000001 0  0 0.04800000000000001 0  0.04000000000000004 0.04800000000000001 0  0.08000000000000007 0.04800000000000001 0  0.1200000000000001 0.04800000000000001 0  0.1599999999999999 0.04800000000000001 0  0.2 0.04800000000000001 0  0.24 0.04800000000000001 0  0.28 0.04800000000000001 0  0.3200000000000001 0.04800000000000001 0  0.3600000000000001 0.04800000000000001 0  0.3999999999999999 0.04800000000000001 0  0.4399999999999999 0.04800000000000001 0  0.48 0.04800000000000001 0  0.52 0.04800000000000001 0  0.5600000000000001 0.04800000000000001 0  0.6000000000000001 0.04800000000000001 0  0.6399999999999999 0.04800000000000001 0  0.6799999999999999 0.04800000000000001 0  0.72 0.04800000000000001 0  0.76 0.04800000000000001 0  0.8 0.04800000000000001 0  0.8400000000000001 0.04800000000000001 0  0.8799999999999999 0.04800000000000001 0  0.9199999999999999 0.04800000000000001 0  0.96 0.04800000000000001 0  1 0.04800000000000001 0  -1 0.064 0  -0.96 0.064 0  -0.92 0.064 0  -0.88 0.064 0  -0.84 0.064 0  -0.8 0.064 0  -0.76 0.064 0  -0.72 0.064 0  -0.6799999999999999 0.064 0  -0.64 0.064 0  -0.6 0.064 0  -0.5600000000000001 0.064 0  -0.52 0.064 0  -0.48 0.064 0  -0.4399999999999999 0.064 0  -0.4 0.064 0  -0.36 0.064 0  -0.32 0.064 0  -0.28 0.064 0  -0.24 0.064 0  -0.2 0.064 0  -0.16 0.064 0  -0.12 0.064 0  -0.07999999999999996 0.064 0  -0.04000000000000004 0.064 0  0 0.064 0  0.04000000000000004 0.064 0  0.08000000000000007 0.064 0  0.1200000000000001 0.064 0  0.1599999999999999 0.064 0  0.2 0.064 0  0.24 0.064 0  0.28 0.064 0  0.3200000000000001 0.064 0  0.3600000000000001 0.064 0  0.3999999999999999 0.064 0  0.4399999999999999 0.064 0  0.48 0.064 0  0.52 0.064 0  0.5600000000000001 0.064 0  0.6000000000000001 0.064 0  0.6399999999999999 0.064 0  0.6799999999999999 0.064 0  0.72 0.064 0  0.76 0.064 0  0.8 0.064 0  0.8400000000000001 0.064 0  0.8799999999999999 0.064 0  0.9199999999999999 0.064 0  0.96 0.064 0  1 0.064 0  -1 0.08 0  -0.96 0.08 0  -0.92 0.08 0  -0.88 0.08 0  -0.84 0.08 0  -0.8 0.08 0  -0.76 0.08 0  -0.72 0.08 0  -0.6799999999999999 0.08 0  -0.64 0.08 0  -0.6 0.08 0  -0.5600000000000001 0.08 0  -0.52 0.08 0  -0.48 0.08 0  -0.4399999999999999 0.08 0  -0.4 0.08 0  -0.36 0.08 0  -0.32 0.08 0  -0.28 0.08 0  -0.24 0.08 0  -0.2 0.08 0  -0.16 0.08 0  -0.12 0.08 0  -0.07999999999999996 0.08 0  -0.04000000000000004 0.08 0  0 0.08 0  0.04000000000000004 0.08 0  0.08000000000000007 0.08 0  0.1200000000000001 0.08 0  0.1599999999999999 0.08 0  0.2 0.08 0  0.24 0.08 0  0.28 0.08 0  0.3200000000000001 0.08 0  0.3600000000000001 0.08 0  0.3999999999999999 0.08 0  0.4399999999999999 0.08 0  0.48 0.08 0  0.52 0.08 0  0.5600000000000001 0.08 0  0.6000000000000001 0.08 0  0.6399999999999999 0.08 0  0.6799999999999999 0.08 0  0.72 0.08 0  0.76 0.08 0  0.8 0.08 0  0.8400000000000001 0.08 0  0.8799999999999999 0.08 0  0.9199999999999999 0.08 0  0.96 0.08 0  1 0.08 0  -1 0.09600000000000002 0  -0.96 0.09600000000000002 0  -0.92 0.09600000000000002 0  -0.88 0.09600000000000002 0  -0.84 0.09600000000000002 0  -0.8 0.09600000000000002 0  -0.76 0.09600000000000002 0  -0.72 0.09600000000000002 0  -0.6799999999999999 0.09600000000000002 0  -0.64 0.09600000000000002 0  -0.6 0.09600000000000002 0  -0.5600000000000001 0.09600000000000002 0  -0.52 0.09600000000000002 0  -0.48 0.09600000000000002 0  -0.4399999999999999 0.09600000000000002 0  -0.4 0.09600000000000002 0  -0.36 0.09600000000000002 0  -0.32 0.09600000000000002 0  -0.28 0.09600000000000002 0  -0.24 0.09600000000000002 0  -0.2 0.09600000000000002 0  -0.16 0.09600000000000002 0  -0.12 0.09600000000000002 0  -0.07999999999999996 0.09600000000000002 0  -0.04000000000000004 0.09600000000000002 0  0 0.09600000000000002 0  0.04000000000000004 0.09600000000000002 0  0.08000000000000007 0.09600000000000002 0  0.1200000000000001 0.09600000000000002 0  0.1599999999999999 0.09600000000000002 0  0.2 0.09600000000000002 0  0.24 0.09600000000000002 0  0.28 0.09600000000000002 0  0.3200000000000001 0.09600000000000002 0  0.3600000000000001 0.09600000000000002 0  0.3999999999999999 0.09600000000000002 0  0.4399999999999999 0.09600000000000002 0  0.48 0.09600000000000002 0  0.52 0.09600000000000002 0  0.5600000000000001 0.09600000000000002 0  0.6000000000000001 0.09600000000000002 0  0.6399999999999999 0.09600000000000002 0  0.6799999999999999 0.09600000000000002 0  0.72 0.09600000000000002 0  0.76 0.09600000000000002 0  0.8 0.09600000000000002 0  0.8400000000000001 0.09600000000000002 0  0.8799999999999999 0.09600000000000002 0  0.9199999999999999 0.09600000000000002 0  0.96 0.09600000000000002 0  1 0.09600000000000002 0  -1 0.112 0  -0.96 0.112 0  -0.92 0.112 0  -0.88 0.112 0  -0.84 0.112 0  -0.8 0.112 0  -0.76 0.112 0  -0.72 0.112 0  -0.6799999999999999 0.112 0  -0.64 0.112 0  -0.6 0.112 0  -0.5600000000000001 0.112 0  -0.52 0.112 0  -0.48 0.112 0  -0.4399999999999999 0.112 0  -0.4 0.112 0  -0.36 0.112 0  -0.32 0.112 0  -0.28 0.112 0  -0.24 0.112 0  -0.2 0.112 0  -0.16 0.112 0  -0.12 0.112 0  -0.07999999999999996 0.112 0  -0.04000000000000004 0.112 0  0 0.112 0  0.04000000000000004 0.112 0  0.08000000000000007 0.112 0  0.1200000000000001 0.112 0  0.1599999999999999 0.112 0  0.2 0.112 0  0.24 0.112 0  0.28 0.112 0  0.3200000000000001 0.112 0  0.3600000000000001 0.112 0  0.3999999999999999 0.112 0  0.4399999999999999 0.112 0  0.48 0.112 0  0.52 0.112 0  0.5600000000000001 0.112 0  0.6000000000000001 0.112 0  0.6399999999999999 0.112 0  0.6799999999999999 0.112 0  0.72 0.112 0  0.76 0.112 0  0.8 0.112 0  0.8400000000000001 0.112 0  0.8799999999999999 0.112 0  0.9199999999999999 0.112 0  0.96 0.112 0  1 0.112 0  -1 0.128 0  -0.96 0.128 0  -0.92 0.128 0  -0.88 0.128 0  -0.84 0.128 0  -0.8 0.128 0  -0.76 0.128 0  -0.72 0.128 0  -0.6799999999999999 0.128 0  -0.64 0.128 0  -0.6 0.128 0  -0.5600000000000001 0.128 0  -0.52 0.128 0  -0.48 0.128 0  -0.4399999999999999 0.128 0  -0.4 0.128 0  -0.36 0.128 0  -0.32 0.128 0  -0.28 0.128 0  -0.24 0.128 0  -0.2 0.128 0  -0.16 0.128 0  -0.12 0.128 0  -0.07999999999999996 0.128 0  -0.04000000000000004 0.128 0  0 0.128 0  0.04000000000000004 0.128 0  0.08000000000000007 0.128 0  0.1200000000000001 0.128 0  0.1599
[...]
<PointData  Scalars="f_100"> 
<DataArray  type="Float64"  Name="f_100"  format="ascii">6.0000000000000002e-05  5.4000983588854886e-05  5.2209825700352053e-05  5.0913565871251067e-05  4.9441252372557351e-05  4.7584827946532586e-05  4.5331186332620235e-05  4.2775736572083345e-05  4.0075514209965533e-05  3.7407973091791522e-05  3.4933864517395042e-05  3.2770513256188526e-05  3.0979763014843558e-05  2.9569843388447938e-05  2.8506349148994999e-05  2.7725914863167685e-05  2.7145700789712022e-05  2.6651100984933831e-05  2.5983031064797001e-05  2.1375290830467932e-05  1.5665285814890757e-05  1.2856559219666664e-05  1.0710994769357927e-05  8.8817661989090745e-06  7.2534539990746141e-06  5.7926873015337587e-06  4.5016380913879280e-06  3.3937390681106662e-06  2.4809475581746503e-06  1.7752380069017229e-06  1.3241873648287964e-06  1.4104948251497815e-06  1.6930277730887220e-06  1.3411889183511449e-06  9.1655605208855398e-07  5.8066909484367363e-07  3.5055257328379382e-07  2.0396410904571538e-07  1.1498419028478311e-07  6.2991183144189598e-08  3.3598317396815208e-08  1.7474091421359978e-08  8.8727259005597893e-09  4.4034767344264998e-09  2.1382784811661977e-09  1.0169206629035358e-09  4.7408192598925784e-10  2.1676256418166002e-10  9.6798594574758895e-11  3.9396051713967571e-11  0.0000000000000000e+00  6.0000000000000002e-05  5.4275597271308310e-05  5.2476637202278684e-05  5.1174941588284903e-05  4.9697286745828744e-05  4.7833770383492338e-05  4.5570693186743614e-05  4.3003579989643824e-05  4.0290070901052331e-05  3.7608519928843783e-05  3.5120657767184527e-05  3.2944666590454013e-05  3.1142988099475519e-05  2.9724139767416630e-05  2.8653720461932800e-05  2.7868157988216349e-05  2.7284286646363609e-05  2.6787278363221138e-05  2.6105050044791511e-05  2.1929320384631940e-05  1.6448573441127135e-05  1.3510130328585092e-05  1.1259001250774221e-05  9.3424132363977437e-06  7.6369248405707367e-06  6.1060230323371176e-06  4.7513224334590377e-06  3.5868786750329811e-06  2.6254699418088328e-06  1.8793466555260364e-06  1.3950646012818629e-06  1.4298545307942025e-06  1.7032272673812004e-06  1.3505972515636857e-06  9.2322123834568989e-07  5.8499280715300154e-07  3.5321447236753738e-07  2.0554018595191925e-07  1.1588701315164854e-07  6.3493132925526472e-08  3.3869745325536731e-08  1.7617070675292468e-08  8.9461937816596010e-09  4.4403447593866804e-09  2.1563673719402528e-09  1.0256069601671610e-09  4.7816837288752621e-10  2.1864792998518762e-10  9.7653705207117036e-11  3.9785863090508030e-11  0.0000000000000000e+00  6.0000000000000002e-05  5.4546147567289513e-05  5.2742615681826692e-05  5.1436944481567500e-05  4.9954396013125324e-05  4.8083910338284315e-05  4.5811410411888568e-05  4.3232604743870929e-05  4.0505760359243896e-05  3.7810140410735236e-05  3.5308460493876153e-05  3.3119764840522797e-05  3.1307097205939902e-05  2.9879266068581833e-05  2.8801876410818945e-05  2.8011151306396354e-05  2.7423611374083603e-05  2.6924314636039951e-05  2.6231419082045718e-05  2.2436411817077055e-05  1.7224997583797825e-05  1.4161754766710795e-05  1.1811061057514143e-05  9.8098043252196992e-06  8.0281808770956076e-06  6.4272274289385185e-06  5.0083509834390391e-06  3.7864658022551885e-06  2.7753519958642753e-06  1.9876562101296958e-06  1.4687114289822753e-06  1.4553705816202576e-06  1.7156441848013375e-06  1.3607407729557518e-06  9.3012901092587286e-07  5.8940652913922425e-07  3.5591573546141544e-07  2.0713600989479895e-07  1.1680052102350818e-07  6.4001012090217568e-08  3.4144453633202511e-08  1.7761835763542770e-08  9.0206132976493158e-09  4.4777083177517709e-09  2.1747083721503774e-09  1.0344186431102084e-09  4.8231583064322255e-10  2.2056237238517294e-10  9.8522357705545833e-11  4.0180464200238862e-11  0.0000000000000000e+00  6.0000000000000002e-05  5.4811837130663984e-05  5.3007721965535006e-05  5.1699570232260717e-05  5.0212585911603231e-05  4.8335256855776534e-05  4.6053347743366066e-05  4.3462819943863848e-05  4.0722590311699446e-05  3.8012840538446043e-05  3.5497276991995539e-05  3.3295810892641411e-05  3.1472092260927501e-05  3.0035223727893677e-05  2.8950818331790307e-05  2.8154896288935894e-05  2.7563676368963509e-05  2.7062201898406816e-05  2.6361864973449115e-05  2.2902889386353998e-05  1.7975238478486297e-05  1.4807978822250060e-05  1.2365685119538570e-05  1.0283177178852757e-05  8.4268531002536138e-06  6.7561573092159492e-06  5.2727054570474416e-06  3.9925435648145081e-06  2.9306615243437200e-06  2.1002494411128247e-06  1.5453511867325717e-06  1.4863460427513367e-06  1.7303147009693773e-06  1.3716312520853485e-06  9.3728232330175342e-07  5.9391032330425679e-07  3.5865582508471474e-07  2.0875105833740889e-07  1.1772432958084198e-07  6.4514566984470773e-08  3.4422285099372989e-08  1.7908293602191253e-08  9.0959313891186761e-09  4.5155381610254496e-09  2.1932858434111304e-09  1.0433475831085209e-09  4.8652018347008426e-10  2.2250385475422630e-10  9.9403549464677951e-11  4.0579274273977307e-11  0.0000000000000000e+00  6.0000000000000002e-05  5.5072106876024162e-05  5.3271932877550319e-05  5.1962818228450843e-05  5.0471862916853199e-05  4.8587818753240439e-05  4.6296514426962581e-05  4.3694234246639534e-05  4.0940568217393200e-05  3.8216626287973428e-05  3.5687111767913391e-05  3.3472808028876211e-05  3.1637975694926893e-05  3.0192014716329661e-05  2.9100548065345260e-05  2.8299394840803104e-05  2.7704483374080638e-05  2.7200935072160575e-05  2.6496111953519363e-05  2.3334384581596113e-05  1.8689986797782332e-05  1.5446307958446078e-05  1.2921575284649110e-05  1.0761850890910603e-05  8.8326202398495175e-06  7.0927059887441252e-06  5.5444017527406086e-06  4.2051898253930688e-06  3.0915004330237433e-06  2.2172362822871203e-06  1.6251861584097078e-06  1.5222744845038137e-06  1.7472682912356205e-06  1.3832776373701854e-06  9.4468326574294742e-07  5.9850416888257281e-07  3.6143429871858278e-07  2.1038491356239029e-07  1.1865813333836501e-07  6.5033596151081338e-08  3.4703114797102227e-08  1.8056370170501388e-08  9.1721058316760841e-09  4.5538109987038443e-09  2.2120873265867631e-09  1.0523873015083898e-09  4.9077815002919086e-10  2.2447075302310395e-10  1.0029648121275702e-10  4.0981853001599593e-11  0.0000000000000000e+00  6.0000000000000002e-05  5.5326592581458301e-05  5.3535239169149534e-05  5.2226691414004173e-05  5.0732234276863718e-05  4.8841604716728408e-05  4.6540919327944519e-05  4.3926855949407807e-05  4.1159701323944364e-05  3.8421503623091896e-05  3.5877969509859136e-05  3.3650759863537677e-05  3.1804750358378956e-05  3.0349641449408492e-05  2.9251067870254930e-05  2.8444649225222557e-05  2.7846034405523258e-05  2.7340511087939561e-05  2.6633889056593777e-05  2.3735837225037845e-05  1.9365751230868973e-05  1.6074737587775510e-05  1.3477570375283759e-05  1.1245208043303523e-05  9.2452002392580805e-06  7.4367976559495326e-06  5.8234841723868721e-06  4.4245100572353669e-06  3.2579966100688733e-06  2.3387472447504848e-06  1.7084029849786875e-06  1.5627902930308472e-06  1.7665275031911604e-06  1.3956861132373750e-06  9.5233308478243125e-07  6.0318794010682725e-07  3.6425078183879176e-07  2.1203724108417542e-07  1.1960169062964822e-07  6.5557940626570684e-08  3.4986844132600835e-08  1.8206006995738620e-08  9.2491032351761587e-09  4.5925083955613776e-09  2.2311029518516823e-09  1.0615326626532548e-09  4.9508712778098681e-10  2.2646177854314371e-10  1.0120051900802775e-10  4.1387873622656198e-11  0.0000000000000000e+00  6.0000000000000002e-05  5.5575088875420297e-05  5.3797644067156596e-05  5.2491196166862061e-05  5.0993708039831529e-05  4.9096623380411709e-05  4.6786571020727443e-05  4.4160693065334328e-05  4.1379996714081479e-05  3.8627478505485467e-05  3.6069855062894414e-05  3.3829670290602412e-05  3.1972419452547130e-05  3.0508106712725861e-05  2.9402380352827830e-05  2.8590662001793430e-05  2.7988331693428004e-05  2.7480928230750389e-05  2.6774935289513611e-05  2.4111539704801094e-05  2.0002347830624525e-05  1.6691620107214136e-05  1.4032634348997791e-05  1.1732690988686587e-05  9.6643491516898050e-06  7.7883866543855608e-06  6.1100238972680839e-06  4.6506346068810129e-06  3.4303003455801683e-06  2.4649304450194230e-06  1.7951782589429178e-06  1.6076329987700295e-06  1.7881080699379302e-06  1.4088601417400772e-06  9.6023219917409740e-07  6.0796138827811793e-07  3.6710494579969417e-07  2.1370777197898084e-07  1.2055481133121766e-07  6.6087476015876581e-08  3.5273395980763228e-08  1.8357158286426756e-08  9.3268974131703897e-09  4.6316158735825054e-09  2.2503249585403231e-09  1.0707796241914667e-09  4.9944506645520902e-10  2.2847591541394462e-10  1.0211516337783772e-10  4.1797101005298920e-11  0.0000000000000000e+00  6.0000000000000002e-05  5.5817519401263133e-05  5.4059162259205711e-05  5.2756342196694003e-05  5.1256293075919529e-05  4.9352883391580208e-05  4.7033477862546518e-05  4.4395753385720662e-05  4.1601461343625794e-05  3.8834556902784211e-05  3.6262773408033037e-05  3.4009543440234639e-05  3.2140986472523609e-05  3.0667413600677940e-05  2.9554488408793445e-05  2.8737435975771797e-05  2.8131377634992361e-05  2.7622185623042772e-05  2.6919003083811399e-05  2.4465200773181206e-05  2.0601403680198570e-05  1.7295651270645526e-05  1.4585859803297172e-05  1.2223805077412825e-05  1.0089863969293580e-05  8.1474594843158945e-06  6.4041198869480939e-06  4.8837184760128817e-06  3.6085833330882677e-06  2.5959506874327141e-06  1.8856836990576927e-06  1.6566215939487940e-06  1.8120192051498091e-06  1.4228004918892890e-06  9.6838021359045526e-07  6.1282412719529863e-07  3.6999648975868056e-07  2.1539628843799700e-07  1.2151734683054394e-07  6.6622106019992135e-08  3.5562710715312990e-08  1.8509788594471092e-08  9.4054680540773949e-09  4.6711221805564184e-09  2.2697473043509728e-09  1.0801250339744739e-09  5.0385036519038549e-10  2.3051236956306487e-10  1.0304002425580054e-10  4.2209373808169548e-11  0.0000000000000000e+00  6.0000000000000002e-05  5.6053912148458341e-05  5.4319819179131205e-05  5.3022142454498652e-05  5.1519999093119528e-05  4.9610393463550215e-05  4.7281648053879728e-05  4.4632044531008759e-05  4.1824102072535298e-05  3.9042744794930892e-05  3.6456729644826442e-05  3.4190383642835751e-05  3.2310455160243345e-05  3.0827565466038890e-05  2.9707395175556661e-05  2.8884974156517107e-05  2.8275174757054269e-05  2.7764282822465599e-05  2.7065860416566831e-05  2.4800015465434024e-05  2.1165472020600793e-05  1.7885882820541160e-05  1.5136476509710374e-05  1.2718125248531950e-05  1.0521587549732628e-05  8.5140383461353780e-06  6.7059011928381329e-06  5.1239425759927863e-06  3.7930391652705521e-06  2.7319897403085092e-06  1.9800907179248300e-06  1.7096359998586019e-06  1.8382639741647581e-06  1.4375052598336167e-06  9.7677593107406747e-07  6.1777562156075213e-07  3.7292512597154164e-07  2.1710261197387378e-07  1.2248918183234124e-07  6.7161757151277009e-08  3.5854742969265323e-08  1.8663870908608410e-08  9.4847996382325254e-09  4.7110186943943824e-09  2.2893653472678399e-09  1.0895664648479835e-09  5.0830178891297766e-10  2.3257052737291655e-10  1.0397480062534277e-10  4.2624589983654708e-11  0.0000000000000000e+00  6.0000000000000002e-05  5.6284379103423524e-05  5.4579650490937171e-05  5.3288613048701730e-05  5.1784836647412019e-05  4.9869162418349406e-05  4.7531089687893549e-05  4.4869573992587971e-05  4.2047925690270760e-05  3.9252048179218220e-05  3.6651728976844097e-05  3.4372195399320939e-05  3.2480829465749884e-05  3.0988565878470928e-05  2.9861103992974677e-05  2.9033279723461714e-05  2.8419725686332227e-05  2.7907219514505096e-05  2.7215291916854112e-05  2.5118733790431449e-05  2.1697515564776881e-05  1.8461727238200647e-05  1.5683860928335514e-05  1.3215304123248819e-05  1.0959414658544739e-05  8.8881855856062990e-06  7.0155301288000887e-06  5.3715158717609412e-06  3.9838847193668756e-06  2.8732473295642928e-06  2.0785743860761033e-06  1.7666036732853460e-06  1.8668396719385670e-06  1.4529698827482599e-06  9.8541736506445446e-07  6.2281517803405760e-07  3.7589056790555022e-07  2.1882659381285880e-07  1.2347022767122987e-07  6.7706374419636339e-08  3.6149458991561083e-08  1.8819385099612717e-08  9.5648805552968369e-09  4.7512989379649886e-09  2.3091755866583554e-09  1.0991020802599095e-09  5.1279840035416155e-10  2.3464992206310272e-10  1.0491926398330986e-10  4.3042695015014620e-11  0.0000000000000000e+00  6.0000000000000002e-05  5.6509099510311785e-05  5.4838701696931645e-05  5.3555773163736909e-05  5.2050817147434629e-05  5.0129199220735043e-05  4.7781810790783323e-05  4.5108349167030652e-05  4.2272938936515558e-05  3.9462473074269099e-05  3.6847776699571495e-05  3.4554983356545790e-05  3.2652113515264264e-05  3.1150418590384426e-05  3.0015618371136787e-05  2.9182355998256339e-05  2.8565033125817293e-05  2.8050995282975865e-05  2.7367099211968306e-05  2.5423724472504096e-05  2.2200611045811359e-05  1.9022946630057495e-05  1.6227544965416254e-05  1.3715080594311561e-05  1.1403298591565828e-05  9.2700086878437313e-06  7.3332059878741348e-06  5.6266780890305960e-06  4.1813620962962947e-06  3.0199425850873442e-06  2.1813168738419892e-06  1.8274899221504082e-06  1.8977381637048753e-06  1.4691871489655517e-06  9.9430175166577536e-07  6.2794193865111151e-07  3.7889252071303261e-07  2.2056810708876970e-07  1.2446041685904966e-07  6.8255917812360715e-08  3.6446834490340506e-08  1.8976316652339134e-08  9.6457023849160044e-09  4.7919581839136680e-09  2.3291754525197131e-09  1.1087305249276501e-09  5.1733950477523048e-10  2.3675020637203602e-10  1.0587324490398335e-10  4.3463672389718389e-11  0.0000000000000000e+00  6.0000000000000002e-05  5.6728306147348930e-05  5.5097027816392423e-05  5.3823644978152995e-05  5.2317952853881485e-05  5.0390513004842332e-05  4.8033819354554296e-05  4.5348377384093146e-05  4.2499148518093502e-05  3.9674025523176854e-05  3.7044878190326014e-05  3.4738752286991204e-05  3.2824311584861187e-05  3.1313127508844849e-05  3.0170941963897109e-05  2.9332206421985590e-05  2.8711099836123740e-05  2.8195609443838728e-05  2.7521100714610564e-05  2.5717032142870266e-05  2.2677786227554717e-05  1.9569627984559104e-05  1.6767223137801104e-05  1.4217288355352440e-05  1.1853258077360355e-05  9.6596656209142470e-06  7.6591691296572946e-06  5.8897028016912119e-06  4.3857409266494106e-06  3.1723157920893990e-06  2.2885104748816718e-06  1.8922909093511413e-06  1.9309461611421767e-06  1.4861472065517320e-06  1.0034255626928479e-06  6.3315487636543758e-07  3.8193067368726500e-07  2.2232704052368708e-07  1.2545969864437166e-07  6.8810359422766887e-08  3.6746852873409564e-08  1.9134655631637536e-08  9.7272593103728184e-09  4.8329931327363995e-09  2.3493631338969289e-09  1.1184508358796906e-09  5.2192460501961817e-10  2.3887113035429158e-10  1.0683662211913195e-10  4.3887535901255769e-11  0.0000000000000000e+00  6.0000000000000002e-05  5.6942274120912612e-05  5.5354693096922858e-05  5.4092253580071502e-05  5.2586256873860176e-05  5.0653113094545655e-05  4.8287123363519324e-05  4.5589665929581538e-05  4.2726561122775547e-05  3.9886711595979018e-05  3.7243038899855880e-05  3.4923507071967861e-05  3.2997428078765750e-05  3.1476696672452916e-05  3.0327078547132499e-05  2.9482834536545192e-05  2.8857928620854266e-05  2.8341060930057768e-05  2.7677131008293074e-05  2.6000427581202106e-05  2.3131935772914820e-05  2.0102149933580899e-05  1.7302757752247682e-05  1.4721864064742649e-05  1.2309384286211136e-05  1.0057370413096509e-05  7.9937053374002548e-06  6.1609007958311699e-06  4.5973209395514954e-06  3.3306303646732493e-06  2.4003603128376266e-06  1.9610286130582101e-06  1.9664454182090178e-06  1.5038375722401572e-06  1.0127845199281774e-06  6.3845279250154183e-07  3.8500469438759518e-07  2.2410329333653401e-07  1.2646803540203430e-07  6.9369681109193042e-08  3.7049503812840889e-08  1.9294395838909045e-08  9.8095476405601193e-09  4.8744016504742468e-09  2.3697374391612284e-09  1.1282623700585520e-09  5.2655336495406697e-10  2.4101252333156529e-10  1.0780931363947967e-10  4.4314323445340013e-11  0.0000000000000000e+00  6.0000000000000002e-05  5.7151311760528691e-05  5.5611770732538629e-05  5.4361626878401751e-05  5.2855743150434577e-05  5.0917009018437764e-05  4.8541730815568497e-05  4.5832222063986615e-05  4.2955183430541092e-05  4.0100537391602720e-05  3.7442264345342448e-05  3.5109252687728657e-05  3.3171467511455789e-05  3.1641130232313415e-05  3.0484032000879680e-05  2.9634243969434662e-05  2.9005522315231655e-05  2.8487348217189431e-05  2.7835039952374024e-05  2.6275451257842842e-05  2.3565783635314976e-05  2.0621146012180348e-05  1.7834182004266783e-05  1.5228854985138386e-05  1.2771847842233219e-05  1.0463398893392666e-05  8.3371503850723064e-06  6.4406236510027318e-06  4.8164347363374325e-06  3.4951749952375089e-06  2.5170868203563926e-06  2.0337472171554303e-06  2.0042128383004040e-06  1.5222431423848791e-06  1.0223736109359787e-06  6.4383431593800434e-07  3.8811422417419574e-07  2.2589677116679507e-07  1.2748539970344924e-07  6.9933872587468682e-08  3.7354782074018837e-08  1.9455534124019341e-08  9.8925654201486689e-09  4.9161825549159264e-09  2.3902976821932201e-09  1.1381647453810857e-09  5.3122557972264850e-10  2.4317427921491274e-10  1.0879126953201100e-10  4.4744092036703053e-11  0.0000000000000000e+00  6.0000000000000002e-05  5.7355753265825016e-05  5.5868342571364479e-05  5.4631795508659711e-05  5.3126426447581382e-05  5.1182210520186738e-05  4.8797649739083683e-05  4.6076053037632910e-05  4.3185022122756949e-05  4.0315509039391865e-05  3.7642560104570888e-05  3.5295994193981915e-05  3.3346434492896945e-05  3.1806432436363295e-05  3.0641806294655669e-05  2.9786438421351905e-05  2.9153883777402782e-05  2.8634469281133810e-05  2.7994691599215197e-05  2.6543450749165321e-05  2.3981872511175329e-05  2.1127468254768784e-05  1.8361701127943551e-05  1.5738426030525278e-05  1.3240905775847315e-05  1.0878094550397031e-05  8.6898947775460555e-06  6.7292675039492305e-06  5.0434507364419895e-06  3.6662659539439780e-06  2.6389280650249217e-06  2.1105105519155272e-06  2.0442204892141434e-06  1.5413462074048370e-06  1.0321871067067542e-06  6.4929790386121947e-07  3.9125887493678367e-07  2.2770738283833641e-07  1.2851177194531730e-07  7.0502929877579218e-08  3.7662686560338444e-08  1.9618069823751618e-08  9.9763121115270014e-09  4.9583354412465000e-09  2.4110435896176193e-09  1.1481577927282093e-09  5.3594115153067897e-10  2.4535634456189394e-10  1.0978246603973855e-10  4.5176913822017552e-11  0.0000000000000000e+00  6.0000000000000002e-05  5.7555952813334912e-05  5.6124498802299276e-05  5.4902792732574819e-05  5.3398322330788003e-05  5.1448727564909476e-05  4.9054888206221173e-05  4.6321166102955588e-05  4.3416083889653869e-05  4.0531632700303609e-05  3.7843931811073163e-05  3.5483736724385049e-05  3.3522333716354032e-05  3.1972607616457560e-05  3.0800405475387854e-05  2.9939421656084871e-05  2.9303015881941531e-05  2.8782421580988913e-05  2.8155962992864738e-05  2.6805612729797312e-05  2.4382568684832049e-05  2.1622153680726681e-05  1.8885691894414530e-05  1.6250866212159047e-05  1.3716908379278344e-05  1.1301874479506500e-05  9.0523886399426383e-06  7.0272769737129763e-06  5.2787762770005722e-06  3.8442495242933309e-06  2.7661419829051200e-06  2.1914003096898622e-06  2.0864355254483134e-06  1.5611264710457497e-06  1.0422185813447131e-06  6.5484184394995308e-07  3.9443822683765492e-07  2.2953503781911842e-07  1.2954713843635076e-07  7.1076854039598441e-08  3.7973219533651005e-08  1.9782004303250778e-08  1.0060788335103430e-08  5.0008605397481731e-09  2.4319752251322412e-09  1.1582415168041634e-09  5.4070006991371411e-10  2.4755870885066828e-10  1.1078290078907620e-10  4.5612872904822462e-11  0.0000000000000000e+00  6.0000000000000002e-05  5.7752279878642789e-05  5.6380337614673786e-05  5.5174654330932709e-05  5.3671447143519058e-05  5.1716570342102022e-05  4.9313454343163732e-05  4.6567568524411830e-05  4.3648375436412176e-05  4.0748914567844082e-05  3.8046385150078322e-05  3.5672485478669560e-05  3.3699169948318470e-05  3.213966017771604