<?xml version="1.0"?>
<VTKFile type="UnstructuredGrid"  version="0.1"  >
<UnstructuredGrid>
<Piece  NumberOfPoints="2601" NumberOfCells="5000">
<Points>
<DataArray  type="Float64"  NumberOfComponents="3"  format="ascii">-1 0 0  -0.96 0 0  -0.92 0 0  -0.88 0 0  -0.84 0 0  -0.8 0 0  -0.76 0 0  -0.72 0 0  -0.6799999999999999 0 0  -0.64 0 0  -0.6 0 0  -0.5600000000000001 0 0  -0.52 0 0  -0.48 0 0  -0.4399999999999999 0 0  -0.4 0 0  -0.36 0 0  -0.32 0 0  -0.28 0 0  -0.24 0 0  -0.2 0 0  -0.16 0 0  -0.12 0 0  -0.07999999999999996 0 0  -0.04000000000000004 0 0  0 0 0  0.04000000000000004 0 0  0.08000000000000007 0 0  0.1200000000000001 0 0  0.1599999999999999 0 0  0.2 0 0  0.24 0 0  0.28 0 0  0.3200000000000001 0 0  0.3600000000000001 0 0  0.3999999999999999 0 0  0.4399999999999999 0 0  0.48 0 0  0.52 0 0  0.5600000000000001 0 0  0.6000000000000001 0 0  0.6399999999999999 0 0  0.6799999999999999 0 0  0.72 0 0  0.76 0 0  0.8 0 0  0.8400000000000001 0 0  0.8799999999999999 0 0  0.9199999999999999 0 0  0.96 0 0  1 0 0  -1 0.016 0  -0.96 0.016 0  -0.92 0.016 0  -0.88 0.016 0  -0.84 0.016 0  -0.8 0.016 0  -0.76 0.016 0  -0.72 0.016 0  -0.6799999999999999 0.016 0  -0.64 0.016 0  -0.6 0.016 0  -0.5600000000000001 0.016 0  -0.52 0.016 0  -0.48 0.016 0  -0.4399999999999999 0.016 0  -0.4 0.016 0  -0.36 0.016 0  -0.32 0.016 0  -0.28 0.016 0  -0.24 0.016 0  -0.2 0.016 0  -0.16 0.016 0  -0.12 0.016 0  -0.07999999999999996 0.016 0  -0.04000000000000004 0.016 0  0 0.016 0  0.04000000000000004 0.016 0  0.08000000000000007 0.016 0  0.1200000000000001 0.016 0  0.1599999999999999 0.016 0  0.2 0.016 0  0.24 0.016 0  0.28 0.016 0  0.3200000000000001 0.016 0  0.3600000000000001 0.016 0  0.3999999999999999 0.016 0  0.4399999999999999 0.016 0  0.48 0.016 0  0.52 0.016 0  0.5600000000000001 0.016 0  0.6000000000000001 0.016 0  0.6399999999999999 0.016 0  0.6799999999999999 0.016 0  0.72 0.016 0  0.76 0.016 0  0.8 0.016 0  0.8400000000000001 0.016 0  0.8799999999999999 0.016 0  0.9199999999999999 0.016 0  0.96 0.016 0  1 0.016 0  -1 0.032 0  -0.96 0.032 0  -0.92 0.032 0  -0.88 0.032 0  -0.84 0.032 0  -0.8 0.032 0  -0.76 0.032 0  -0.72 0.032 0  -0.6799999999999999 0.032 0  -0.64 0.032 0  -0.6 0.032 0  -0.5600000000000001 0.032 0  -0.52 0.032 0  -0.48 0.032 0  -0.4399999999999999 0.032 0  -0.4 0.032 0  -0.36 0.032 0  -0.32 0.032 0  -0.28 0.032 0  -0.24 0.032 0  -0.2 0.032 0  -0.16 0.032 0  -0.12 0.032 0  -0.07999999999999996 0.032 0  -0.04000000000000004 0.032 0  0 0.032 0  0.04000000000000004 0.032 0  0.08000000000000007 0.032 0  0.1200000000000001 0.032 0  0.1599999999999999 0.032 0  0.2 0.032 0  0.24 0.032 0  0.28 0.032 0  0.3200000000000001 0.032 0  0.3600000000000001 0.032 0  0.3999999999999999 0.032 0  0.4399999999999999 0.032 0  0.48 0.032 0  0.52 0.032 0  0.5600000000000001 0.032 0  0.6000000000000001 0.032 0  0.6399999999999999 0.032 0  0.6799999999999999 0.032 0  0.72 0.032 0  0.76 0.032 0  0.8 0.032 0  0.8400000000000001 0.032 0  0.8799999999999999 0.032 0  0.9199999999999999 0.032 0  0.96 0.032 0  1 0.032 0  -1 0.04800000000000001 0  -0.96 0.04800000000000001 0  -0.92 0.04800000000000001 0  -0.88 0.04800000000000001 0  -0.84 0.04800000000000001 0  -0.8 0.04800000000000001 0  -0.76 0.04800000000000001 0  -0.72 0.04800000000000001 0  -0.6799999999999999 0.04800000000000001 0  -0.64 0.04800000000000001 0  -0.6 0.04800000000000001 0  -0.5600000000000001 0.04800000000000001 0  -0.52 0.04800000000000001 0  -0.48 0.04800000000000001 0  -0.4399999999999999 0.04800000000000001 0  -0.4 0.04800000000000001 0  -0.36 0.04800000000000001 0  -0.32 0.04800000000000001 0  -0.28 0.04800000000000001 0  -0.24 0.04800000000000001 0  -0.2 0.04800000000000001 0  -0.16 0.04800000000000001 0  -0.12 0.04800000000000001 0  -0.07999999999999996 0.04800000000000001 0  -0.04000000000000004 0.04800000000000001 0  0 0.04800000000000001 0  0.04000000000000004 0.04800000000000001 0  0.08000000000000007 0.04800000000000001 0  0.1200000000000001 0.04800000000000001 0  0.1599999999999999 0.04800000000000001 0  0.2 0.04800000000000001 0  0.24 0.04800000000000001 0  0.28 0.04800000000000001 0  0.3200000000000001 0.04800000000000001 0  0.3600000000000001 0.04800000000000001 0  0.3999999999999999 0.04800000000000001 0  0.4399999999999999 0.04800000000000001 0  0.48 0.04800000000000001 0  0.52 0.04800000000000001 0  0.5600000000000001 0.04800000000000001 0  0.6000000000000001 0.04800000000000001 0  0.6399999999999999 0.04800000000000001 0  0.6799999999999999 0.04800000000000001 0  0.72 0.04800000000000001 0  0.76 0.04800000000000001 0  0.8 0.04800000000000001 0  0.8400000000000001 0.04800000000000001 0  0.8799999999999999 0.04800000000000001 0  0.9199999999999999 0.04800000000000001 0  0.96 0.04800000000000001 0  1 0.04800000000000001 0  -1 0.064 0  -0.96 0.064 0  -0.92 0.064 0  -0.88 0.064 0  -0.84 0.064 0  -0.8 0.064 0  -0.76 0.064 0  -0.72 0.064 0  -0.6799999999999999 0.064 0  -0.64 0.064 0  -0.6 0.064 0  -0.5600000000000001 0.064 0  -0.52 0.064 0  -0.48 0.064 0  -0.4399999999999999 0.064 0  -0.4 0.064 0  -0.36 0.064 0  -0.32 0.064 0  -0.28 0.064 0  -0.24 0.064 0  -0.2 0.064 0  -0.16 0.064 0  -0.12 0.064 0  -0.07999999999999996 0.064 0  -0.04000000000000004 0.064 0  0 0.064 0  0.04000000000000004 0.064 0  0.08000000000000007 0.064 0  0.1200000000000001 0.064 0  0.1599999999999999 0.064 0  0.2 0.064 0  0.24 0.064 0  0.28 0.064 0  0.3200000000000001 0.064 0  0.3600000000000001 0.064 0  0.3999999999999999 0.064 0  0.4399999999999999 0.064 0  0.48 0.064 0  0.52 0.064 0  0.5600000000000001 0.064 0  0.6000000000000001 0.064 0  0.6399999999999999 0.064 0  0.6799999999999999 0.064 0  0.72 0.064 0  0.76 0.064 0  0.8 0.064 0  0.8400000000000001 0.064 0  0.8799999999999999 0.064 0  0.9199999999999999 0.064 0  0.96 0.064 0  1 0.064 0  -1 0.08 0  -0.96 0.08 0  -0.92 0.08 0  -0.88 0.08 0  -0.84 0.08 0  -0.8 0.08 0  -0.76 0.08 0  -0.72 0.08 0  -0.6799999999999999 0.08 0  -0.64 0.08 0  -0.6 0.08 0  -0.5600000000000001 0.08 0  -0.52 0.08 0  -0.48 0.08 0  -0.4399999999999999 0.08 0  -0.4 0.08 0  -0.36 0.08 0  -0.32 0.08 0  -0.28 0.08 0  -0.24 0.08 0  -0.2 0.08 0  -0.16 0.08 0  -0.12 0.08 0  -0.07999999999999996 0.08 0  -0.04000000000000004 0.08 0  0 0.08 0  0.04000000000000004 0.08 0  0.08000000000000007 0.08 0  0.1200000000000001 0.08 0  0.1599999999999999 0.08 0  0.2 0.08 0  0.24 0.08 0  0.28 0.08 0  0.3200000000000001 0.08 0  0.3600000000000001 0.08 0  0.3999999999999999 0.08 0  0.4399999999999999 0.08 0  0.48 0.08 0  0.52 0.08 0  0.5600000000000001 0.08 0  0.6000000000000001 0.08 0  0.6399999999999999 0.08 0  0.6799999999999999 0.08 0  0.72 0.08 0  0.76 0.08 0  0.8 0.08 0  0.8400000000000001 0.08 0  0.8799999999999999 0.08 0  0.9199999999999999 0.08 0  0.96 0.08 0  1 0.08 0  -1 0.09600000000000002 0  -0.96 0.09600000000000002 0  -0.92 0.09600000000000002 0  -0.88 0.09600000000000002 0  -0.84 0.09600000000000002 0  -0.8 0.09600000000000002 0  -0.76 0.09600000000000002 0  -0.72 0.09600000000000002 0  -0.6799999999999999 0.09600000000000002 0  -0.64 0.09600000000000002 0  -0.6 0.09600000000000002 0  -0.5600000000000001 0.09600000000000002 0  -0.52 0.09600000000000002 0  -0.48 0.09600000000000002 0  -0.4399999999999999 0.09600000000000002 0  -0.4 0.09600000000000002 0  -0.36 0.09600000000000002 0  -0.32 0.09600000000000002 0  -0.28 0.09600000000000002 0  -0.24 0.09600000000000002 0  -0.2 0.09600000000000002 0  -0.16 0.09600000000000002 0  -0.12 0.09600000000000002 0  -0.07999999999999996 0.09600000000000002 0  -0.04000000000000004 0.09600000000000002 0  0 0.09600000000000002 0  0.04000000000000004 0.09600000000000002 0  0.08000000000000007 0.09600000000000002 0  0.1200000000000001 0.09600000000000002 0  0.1599999999999999 0.09600000000000002 0  0.2 0.09600000000000002 0  0.24 0.09600000000000002 0  0.28 0.09600000000000002 0  0.3200000000000001 0.09600000000000002 0  0.3600000000000001 0.09600000000000002 0  0.3999999999999999 0.09600000000000002 0  0.4399999999999999 0.09600000000000002 0  0.48 0.09600000000000002 0  0.52 0.09600000000000002 0  0.5600000000000001 0.09600000000000002 0  0.6000000000000001 0.09600000000000002 0  0.6399999999999999 0.09600000000000002 0  0.6799999999999999 0.09600000000000002 0  0.72 0.09600000000000002 0  0.76 0.09600000000000002 0  0.8 0.09600000000000002 0  0.8400000000000001 0.09600000000000002 0  0.8799999999999999 0.09600000000000002 0  0.9199999999999999 0.09600000000000002 0  0.96 0.09600000000000002 0  1 0.09600000000000002 0  -1 0.112 0  -0.96 0.112 0  -0.92 0.112 0  -0.88 0.112 0  -0.84 0.112 0  -0.8 0.112 0  -0.76 0.112 0  -0.72 0.112 0  -0.6799999999999999 0.112 0  -0.64 0.112 0  -0.6 0.112 0  -0.5600000000000001 0.112 0  -0.52 0.112 0  -0.48 0.112 0  -0.4399999999999999 0.112 0  -0.4 0.112 0  -0.36 0.112 0  -0.32 0.112 0  -0.28 0.112 0  -0.24 0.112 0  -0.2 0.112 0  -0.16 0.112 0  -0.12 0.112 0  -0.07999999999999996 0.112 0  -0.04000000000000004 0.112 0  0 0.112 0  0.04000000000000004 0.112 0  0.08000000000000007 0.112 0  0.1200000000000001 0.112 0  0.1599999999999999 0.112 0  0.2 0.112 0  0.24 0.112 0  0.28 0.112 0  0.3200000000000001 0.112 0  0.3600000000000001 0.112 0  0.3999999999999999 0.112 0  0.4399999999999999 0.112 0  0.48 0.112 0  0.52 0.112 0  0.5600000000000001 0.112 0  0.6000000000000001 0.112 0  0.6399999999999999 0.112 0  0.6799999999999999 0.112 0  0.72 0.112 0  0.76 0.112 0  0.8 0.112 0  0.8400000000000001 0.112 0  0.8799999999999999 0.112 0  0.9199999999999999 0.112 0  0.96 0.112 0  1 0.112 0  -1 0.128 0  -0.96 0.128 0  -0.92 0.128 0  -0.88 0.128 0  -0.84 0.128 0  -0.8 0.128 0  -0.76 0.128 0  -0.72 0.128 0  -0.6799999999999999 0.128 0  -0.64 0.128 0  -0.6 0.128 0  -0.5600000000000001 0.128 0  -0.52 0.128 0  -0.48 0.128 0  -0.4399999999999999 0.128 0  -0.4 0.128 0  -0.36 0.128 0  -0.32 0.128 0  -0.28 0.128 0  -0.24 0.128 0  -0.2 0.128 0  -0.16 0.128 0  -0.12 0.128 0  -0.07999999999999996 0.128 0  -0.04000000000000004 0.128 0  0 0.128 0  0.04000000000000004 0.128 0  0.08000000000000007 0.128 0  0.1200000000000001 0.128 0  0.1599
[...]
<PointData  Scalars="f_100"> 
<DataArray  type="Float64"  Name="f_100"  format="ascii">6.0000000000000002e-05  5.4281728688478939e-05  5.3016720290044178e-05  5.2596306747219926e-05  5.2419275338081234e-05  5.2291222083943844e-05  5.2139315381165760e-05  5.1926717154313647e-05  5.1626317854989409e-05  5.1213498771911995e-05  5.0665312308667341e-05  4.9961969987768056e-05  4.9089118440669270e-05  4.8040140565952372e-05  4.6817919802065333e-05  4.5435366088994325e-05  4.3911896202219458e-05  4.2243569329921547e-05  4.0232396018120712e-05  3.2359036830590762e-05  2.3330177242348973e-05  1.9137443844648666e-05  1.6295225785881557e-05  1.4211974935277578e-05  1.2626754073215285e-05  1.1386455377852940e-05  1.0391164127286934e-05  9.5802163619229319e-06  8.9471123265933130e-06  8.6155683921690431e-06  9.1069039217655096e-06  1.2595677935483567e-05  1.7575038874753785e-05  1.8246127411860743e-05  1.7361210138707703e-05  1.5918138890805652e-05  1.4286663991705982e-05  1.2609186293188242e-05  1.0955574210884569e-05  9.3710179859604507e-06  7.8891933687676231e-06  6.5350982184228215e-06  5.3253318052998790e-06  4.2682104602643153e-06  3.3643329999295620e-06  2.6075354623934681e-06  1.9856836463074785e-06  1.4796240653833105e-06  1.0548365852817002e-06  6.2885416332161373e-07  0.0000000000000000e+00  6.0000000000000002e-05  5.4555824012308394e-05  5.3284086000789308e-05  5.2860625355040401e-05  5.2682519919225329e-05  5.2553933935693704e-05  5.2401533402353233e-05  5.2188262172185860e-05  5.1886870128270818e-05  5.1472613038899657e-05  5.0922418624677530e-05  5.0216377934934455e-05  4.9340031880145020e-05  4.8286685611591912e-05  4.7059185896219612e-05  4.5670459063885499e-05  4.4140012874448152e-05  4.2464314860333544e-05  4.0425949715708440e-05  3.3210969027003335e-05  2.4503800518112487e-05  2.0101737251099636e-05  1.7103640899822574e-05  1.4907551911582952e-05  1.3237703621864121e-05  1.1932229986174646e-05  1.0885427366329210e-05  1.0032398830195952e-05  9.3631538588842411e-06  8.9977135957741768e-06  9.4517459961219313e-06  1.2729193330455160e-05  1.7655357148377207e-05  1.8342453073573117e-05  1.7455605046102306e-05  1.6006167290706057e-05  1.4366778135756457e-05  1.2680839496460782e-05  1.1018663023015808e-05  9.4257098932241931e-06  7.9358619221825249e-06  6.5742819026001234e-06  5.3576938903472158e-06  4.2944963689624696e-06  3.3853275486956029e-06  2.6240236420928791e-06  1.9984186158782661e-06  1.4893067239056701e-06  1.0621146454385981e-06  6.3437182073892229e-07  0.0000000000000000e+00  6.0000000000000002e-05  5.4825873725071803e-05  5.3550630897887000e-05  5.3125587170868212e-05  5.2946868680994288e-05  5.2817894834294688e-05  5.2665044992309918e-05  5.2451112809215606e-05  5.2148728770126707e-05  5.1733029485178006e-05  5.1180819639910401e-05  5.0472069960878420e-05  4.9592215343457546e-05  4.8534482846823559e-05  4.7301682527175341e-05  4.5906759174488733e-05  4.4369330522893643e-05  4.2686434406420419e-05  4.0626212630855008e-05  3.3989248232387136e-05  2.5667991215612753e-05  2.1063846352436070e-05  1.7918849225525384e-05  1.5614165182557828e-05  1.3861835760641212e-05  1.2492292766378762e-05  1.1394482755943036e-05  1.0499447356882189e-05  9.7936694822652483e-06  9.3930384283362794e-06  9.8044172372540237e-06  1.2892514988526793e-05  1.7747918858429006e-05  1.8443241252314729e-05  1.7551762156631164e-05  1.6095067199337923e-05  1.4447456606244646e-05  1.2752932382336111e-05  1.1082123486373189e-05  9.4807233275306121e-06  7.9828083423479586e-06  6.6137032638884524e-06  5.3902564846449012e-06  4.3209488674009074e-06  3.4064583226161493e-06  2.6406214448549926e-06  2.0112404430136383e-06  1.4990571079426434e-06  1.0694420653773120e-06  6.3988832956780051e-07  0.0000000000000000e+00  6.0000000000000002e-05  5.5091081932618715e-05  5.3816314320933404e-05  5.3391185400424076e-05  5.3212324102475250e-05  5.3083110232097667e-05  5.2929856619129899e-05  5.2715275949268216e-05  5.2411900904852648e-05  5.1994755426328483e-05  5.1440522839815539e-05  5.0729053692746675e-05  4.9845676551888386e-05  4.8783540016115169e-05  4.7545417364073640e-05  4.6144273838209945e-05  4.4599855626906110e-05  4.2909919168051980e-05  4.0832759475652843e-05  3.4703997319856721e-05  2.6793007636850217e-05  2.2018430905079710e-05  1.8738542860559567e-05  1.6330627436719525e-05  1.4498586132577218e-05  1.3066469384348833e-05  1.1918415726798488e-05  1.0981630563074248e-05  1.0239076082370269e-05  9.8021473170062402e-06  1.0166606331046654e-05  1.3082015539097711e-05  1.7852918512826878e-05  1.8548560075232150e-05  1.7649709847371153e-05  1.6184849736411873e-05  1.4528704712998982e-05  1.2825468110236876e-05  1.1145957742837170e-05  9.5360597734466309e-06  8.0300335951113859e-06  6.6533628340359076e-06  5.4230197631448877e-06  4.3475678522916635e-06  3.4277250166945737e-06  2.6573284306104358e-06  2.0241485944549792e-06  1.5088745731940297e-06  1.0768179709590429e-06  6.4540155349767126e-07  0.0000000000000000e+00  6.0000000000000002e-05  5.5350890453338489e-05  5.4081111831579871e-05  5.3657417373445217e-05  5.3478889964005186e-05  5.3349585988730515e-05  5.3195974862234193e-05  5.2980758476705485e-05  5.2676393601830831e-05  5.2257798083158186e-05  5.1701535579930881e-05  5.0987336596259855e-05  5.0100423039653666e-05  4.9033864660340380e-05  4.7790397868271662e-05  4.6383010276955766e-05  4.4831594509052737e-05  4.3134764243256621e-05  4.1045162374699025e-05  3.5364174313682950e-05  2.7864490138165405e-05  2.2961671071701002e-05  1.9560755510521554e-05  1.7055922692897566e-05  1.5147503023785161e-05  1.3654669215983486e-05  1.2457377223473869e-05  1.1479267210244841e-05  1.0699820085566886e-05  1.0225630707149697e-05  1.0539733234838977e-05  1.3295106591655477e-05  1.7970499063816927e-05  1.8658460263845594e-05  1.7749469086646465e-05  1.6275523570931797e-05  1.4610526967706187e-05  1.2898449592443974e-05  1.1210167892722124e-05  9.5917207703612779e-06  8.0775387593209669e-06  6.6932612978068434e-06  5.4559840807671584e-06  4.3743534155982900e-06  3.4491275259705201e-06  2.6741443558132927e-06  2.0371427264357025e-06  1.5187586666931133e-06  1.0842417226579232e-06  6.5091035058157033e-07  0.0000000000000000e+00  6.0000000000000002e-05  5.5604935519632808e-05  5.4345013100484912e-05  5.3924284317444067e-05  5.3746571281538314e-05  5.3617328355158030e-05  5.3463406414484863e-05  5.3247567287245608e-05  5.2942213892746562e-05  5.2522164604873212e-05  5.1963865114929784e-05  5.1246926010240157e-05  5.0356462192958131e-05  4.9285464158757531e-05  4.8036631335875918e-05  4.6622975555624701e-05  4.5064553346808777e-05  4.3360967453574031e-05  4.1263002100505203e-05  3.5977599504280540e-05  2.8877022977866210e-05  2.3890520636506943e-05  2.0383753888586057e-05  1.7789155154656204e-05  1.5808214648732154e-05  1.4256863298949946e-05  1.3011569246467678e-05  1.1992718505926039e-05  1.1176378723987419e-05  1.0664084787088944e-05  1.0925022375811539e-05  1.3529953967728382e-05  1.8100753054773707e-05  1.8772975446451754e-05  1.7851053821710275e-05  1.6367095069733293e-05  1.4692927138174401e-05  1.2971879512555560e-05  1.1274755995903526e-05  9.6477079022968326e-06  8.1253250079233732e-06  6.7333994672767583e-06  5.4891499417986863e-06  4.4013058109891534e-06  3.4706659108695237e-06  2.6910691391762615e-06  2.0502226514765894e-06  1.5287090933824455e-06  1.0917128768460493e-06  6.5641438186602348e-07  0.0000000000000000e+00  6.0000000000000002e-05  5.5853011846953047e-05  5.4608020419838539e-05  5.4191791174019863e-05  5.4015374252320991e-05  5.3886343960491313e-05  5.3732158083933781e-05  5.3515709296938260e-05  5.3209368785806253e-05  5.2787862088204054e-05  5.2227518622580617e-05  5.1507829175077551e-05  5.0613801282178126e-05  4.9538345763587974e-05  4.8284124932770896e-05  4.6864176613882235e-05  4.5298738184769393e-05  4.3588528406723891e-05  4.1485875907883164e-05  3.6551042065245448e-05  2.9830277105869576e-05  2.4802487410247719e-05  2.1206004804851056e-05  1.8529529985337292e-05  1.6480416334506761e-05  1.4873075740481608e-05  1.3581239540973726e-05  1.2522385997189855e-05  1.1669262586211218e-05  1.1118123520880188e-05  1.1323557165135396e-05  1.3785273631098533e-05  1.8243725266096818e-05  1.8892122392855665e-05  1.7954471302876139e-05  1.6459568420233489e-05  1.4775908293091074e-05  1.3045760340668454e-05  1.1339724072701546e-05  9.7040227894733052e-06  8.1733935923637024e-06  6.7737782606465629e-06  5.5225179746949239e-06  4.4284254262321060e-06  3.4923403687059303e-06  2.7081028335054279e-06  2.0633883111052304e-06  1.5387256886532189e-06  1.0992311540881221e-06  6.6191395400512918e-07  0.0000000000000000e+00  6.0000000000000002e-05  5.6095042866607979e-05  5.4870147658467953e-05  5.4459946445366796e-05  5.4285306208915381e-05  5.4156639800759987e-05  5.4002236795174305e-05  5.3785191449556221e-05  5.3477865277475548e-05  5.3054897593193061e-05  5.2492503223515543e-05  5.1770053256204853e-05  5.0872447488388856e-05  4.9792516628505194e-05  4.8532885723475814e-05  4.7106620292413333e-05  4.5534154946762596e-05  4.3817447758884607e-05  4.1713402707932443e-05  3.7090331837955096e-05  3.0726710048408393e-05  2.5695603398535466e-05  2.2026171961145334e-05  1.9276350335407395e-05  1.7163868367864650e-05  1.5503382450576800e-05  1.4166681297416935e-05  1.3068712521791899e-05  1.2179018815540764e-05  1.1588386470504385e-05  1.1736321256967891e-05  1.4060185291766664e-05  1.8399416040913378e-05  1.9015901193607705e-05  1.8059722359071747e-05  1.6552945733618487e-05  1.4859472839508937e-05  1.3120094346043191e-05  1.1405074104628924e-05  9.7606670813433752e-06  8.2217458297171893e-06  6.8143986847841850e-06  5.5560889113310503e-06  4.4557127604787143e-06  3.5141512102465040e-06  2.7252456025487365e-06  2.0766397534421447e-06  1.5488083957809766e-06  1.1067964131211201e-06  6.6740989015764039e-07  0.0000000000000000e+00  6.0000000000000002e-05  5.6331056113588426e-05  5.5131419521986341e-05  5.4728762061688338e-05  5.4556375579206181e-05  5.4428223229020041e-05  5.4273649590276630e-05  5.4056020722653755e-05  5.3747710362164584e-05  5.3323278156229492e-05  5.2758825997546523e-05  5.2033605363463142e-05  5.1132407925236617e-05  5.0047983832114182e-05  4.8782920694925913e-05  4.7350313354636156e-05  4.5770809447485145e-05  4.4047726643460762e-05  4.1945226192586477e-05  3.7600476962869095e-05  3.1570204815724017e-05  2.6568439196259341e-05  2.2843123900276758e-05  2.0029022616123093e-05  1.7858399572375594e-05  1.6147913907899143e-05  1.4768235645415505e-05  1.3632184875512734e-05  1.2706234673081681e-05  1.2075544418581219e-05  1.2164230262021977e-05  1.4354107281200303e-05  1.8567784763330247e-05  1.9144295403687384e-05  1.8166801637127720e-05  1.6647227133497660e-05  1.4943622554860308e-05  1.3194883607865685e-05  1.1470808035086114e-05  9.8176424508618165e-06  8.2703830920812666e-06  6.8552618208401621e-06  5.5898635699180634e-06  4.4831684055721616e-06  3.5360988404358636e-06  2.7424977019653211e-06  2.0899771147846478e-06  1.5589572473810289e-06  1.1144086294456928e-06  6.7290342441147408e-07  0.0000000000000000e+00  6.0000000000000002e-05  5.6561162924202615e-05  5.5391871015729274e-05  5.4998253262512325e-05  5.4828591850500803e-05  5.4701101946298486e-05  5.4546403629296520e-05  5.4328204132499884e-05  5.4018911040214084e-05  5.3593010800814311e-05  5.3026493997137532e-05  5.2298492567083482e-05  5.1393689656979996e-05  5.0304754397309546e-05  4.9034236776080356e-05  4.7595262504687625e-05  4.6008707403458169e-05  4.4279366237526872e-05  4.2181016404844952e-05  3.8085777026131459e-05  3.2365274510447237e-05  2.7420108606239116e-05  2.3655945397169542e-05  2.0787065785593162e-05  1.8563913957974415e-05  1.6806860182281281e-05  1.5386295748245553e-05  1.4213337484205865e-05  1.3251541348389929e-05  1.2580303933816887e-05  1.2608156509529658e-05  1.4666681004618187e-05  1.8748753160661083e-05  1.9277272167829302e-05  1.8275697814920262e-05  1.6742410834079094e-05  1.5028358614948600e-05  1.3270130024598303e-05  1.1536927770067151e-05  9.8749505897925523e-06  8.3193067978381985e-06  6.8963688123984016e-06  5.6238428409370461e-06  4.5107930306660368e-06  3.5581837425442900e-06  2.7598594636815795e-06  2.1034006044743924e-06  1.5691723501634827e-06  1.1220678776596905e-06  6.7839611576939224e-07  0.0000000000000000e+00  6.0000000000000002e-05  5.6785541735451284e-05  5.5651547035450398e-05  5.5268438486608581e-05  5.5101965536217859e-05  5.4975283992979376e-05  5.4820506190354058e-05  5.4601748738060045e-05  5.4291474324473456e-05  5.3864102546453186e-05  5.3295514258534123e-05  5.2564721910883327e-05  5.1656299713378574e-05  5.0562835307243745e-05  4.9286840854099397e-05  4.7841474402348586e-05  4.6247854443222460e-05  4.4512367441114458e-05  4.2420470150116216e-05  3.8549926696806504e-05  3.3116607056277465e-05  2.8250250272160877e-05  2.4463948801905992e-05  2.1550122348720451e-05  1.9280398995985602e-05  1.7480477249206861e-05  1.6021311853469661e-05  1.4812756702461241e-05  1.3815617974447962e-05  1.3103411514211070e-05  1.3068948708044311e-05  1.4997716624699927e-05  1.8942208234751649e-05  1.9414782341910229e-05  1.8386393796675641e-05  1.6838493211126359e-05  1.5113681619080738e-05  1.3345835322315838e-05  1.1603435178924255e-05  9.9325932048890618e-06  8.3685184044659832e-06  6.9377208557175670e-06  5.6580276755587567e-06  4.5385873695671481e-06  3.5804064651294411e-06  2.7773312830302994e-06  2.1169104924617024e-06  1.5794538723962956e-06  1.1297743168292785e-06  6.8388977838831369e-07  0.0000000000000000e+00  6.0000000000000002e-05  5.7004424393053135e-05  5.5910502031613897e-05  5.5539339266490055e-05  5.5376508143968770e-05  5.5250777740320084e-05  5.5095964669284456e-05  5.4876661644170362e-05  5.4565407245712186e-05  5.4136560416005544e-05  5.3565893810963780e-05  5.2832300423170138e-05  5.1920245101987871e-05  5.0822233518507437e-05  4.9540739787701682e-05  4.8088955675458438e-05  4.6488256116777152e-05  4.4746730648132276e-05  4.2663310560399582e-05  3.8996107895481711e-05  3.3828813720757858e-05  2.9058989182413594e-05  2.5266683598781885e-05  2.2317969805922797e-05  2.0007934721188864e-05  1.8169094066552794e-05  1.6673796948895996e-05  1.5431085536924971e-05  1.4399195834610668e-05  1.3645657651402559e-05  1.3547447847943288e-05  1.5347154014316482e-05  1.9148004716197956e-05  1.9556760622277220e-05  1.8498866897246999e-05  1.6935468868308741e-05  1.5199591613272287e-05  1.3422001062342722e-05  1.1670332095226913e-05  9.9905720148108697e-06  8.4180194026309722e-06  6.9793191916963408e-06  5.6924190761094655e-06  4.5665522103191439e-06  3.6027676113113227e-06  2.7949136081763581e-06  2.1305070990843079e-06  1.5898020335902821e-06  1.1375281783266939e-06  6.8938642531430164e-07  0.0000000000000000e+00  6.0000000000000002e-05  5.7218084971429110e-05  5.6168799708985991e-05  5.5810980124444282e-05  5.5652232144089943e-05  5.5527591881854338e-05  5.5372786578866715e-05  5.5152950004025157e-05  5.4840716857063439e-05  5.4410391441760478e-05  5.3837639684247941e-05  5.3101235125758678e-05  5.2185532818321056e-05  5.1082955972017953e-05  4.9795940418204505e-05  4.8337712930271901e-05  4.6729917904319501e-05  4.4982455590964806e-05  4.2909286054052494e-05  3.9427070245753618e-05  3.4506299068275486e-05  2.9846885582458977e-05  2.6063943329137614e-05  2.3090531857343144e-05  2.0746703212875576e-05  1.8873120117665655e-05  1.7344332830130442e-05  1.6069028685158576e-05  1.5003062760445890e-05  1.4207880995011543e-05  1.4044500334277559e-05  1.5715034713542534e-05  1.9365966992906052e-05  1.9703125692722317e-05  1.8613089020931732e-05  1.7033330701028120e-05  1.5286088112268193e-05  1.3498628648443635e-05  1.1737620317741670e-05  1.0048888747661556e-05  8.4678113113416716e-06  7.0211650992598989e-06  5.7270180882210925e-06  4.5946883866289502e-06  3.6252678299483960e-06  2.8126069314205902e-06  2.1441907866638913e-06  1.6002170960066116e-06  1.1453297556717966e-06  6.9488822341359895e-07  0.0000000000000000e+00  6.0000000000000002e-05  5.7426830689757814e-05  5.6426512735172975e-05  5.6083388467775937e-05  5.5929150937887812e-05  5.5805735424494243e-05  5.5650979547638983e-05  5.5430621021078125e-05  5.5117410237664600e-05  5.4685602670463064e-05  5.4110758915106595e-05  5.3371533041436444e-05  5.2452169854256709e-05  5.1345009602024102e-05  5.0052449578661369e-05  4.8587752760130766e-05  4.6972845224375004e-05  4.5219541243686271e-05  4.3158168877817759e-05  3.9845200460832933e-05  3.5153202628789683e-05  3.0614878756667471e-05  2.6855769590382425e-05  2.3867888996584261e-05  2.1496998199043224e-05  1.9593053251281287e-05  1.8033576470183158e-05  1.6727357829727262e-05  1.5628067722262338e-05  1.4790972705406665e-05  1.4560969086973701e-05  1.6101481836919926e-05  1.9595890500896609e-05  1.9853780397042542e-05  1.8729026839363095e-05  1.7132069959372650e-05  1.5373170120968246e-05  1.3575719333767398e-05  1.1805301611551101e-05  1.0107545139052377e-05  8.5178956739812479e-06  7.0632598899177452e-06  5.7618257943672411e-06  4.6229967708081537e-06  3.6479078083755657e-06  2.8304117820457506e-06  2.1579619525942834e-06  1.6106993576584300e-06  1.1531793960019004e-06  7.0039745758209320e-07  0.0000000000000000e+00  6.0000000000000002e-05  5.7630994575929869e-05  5.6683722440647032e-05  5.6356594481506516e-05  5.6207278825027200e-05  5.6085217679188466e-05  5.5930551318311880e-05  5.5709681950441841e-05  5.5395494495631123e-05  5.4962201167475452e-05  5.4385258552387408e-05  5.3643201200153585e-05  5.2720163205005252e-05  5.1608401343564114e-05  5.0310274101437942e-05  4.8839081752757251e-05  4.7217043441422746e-05  4.5457985771372234e-05  4.3409753372727542e-05  4.0252581741550175e-05  3.5773382335351710e-05  3.1364231449718271e-05  2.7642453230324203e-05  2.4650288322722810e-05  2.2259234636160973e-05  2.0329487717983649e-05  1.8742266626881890e-05  1.7406917152782274e-05  1.6275125613716215e-05  1.5395881035457325e-05  1.5097743164209667e-05  1.6506685741548405e-05  1.9837542587374502e-05  2.0008611943754518e-05  1.8846641972144256e-05  1.7231676311492640e-05  1.5460836155720412e-05  1.3653274227701325e-05  1.1873377709324473e-05  1.0166542930611143e-05  8.5682740550675189e-06  7.1056049032865435e-06  5.7968433085389418e-06  4.6514782679590703e-06  3.6706882664245489e-06  2.8483287204279353e-06  2.1718210236529788e-06  1.6212491465365496e-06  1.1610774928649232e-06  7.0591650263368126e-07  0.0000000000000000e+00  6.0000000000000002e-05  5.7830929586955399e-05  5.6940518499327898e-05  5.6630631017217887e-05  5.6486630969631172e-05  5.6366048251030791e-05  5.6211509745793055e-05  5.5990140099856281e-05  5.5674976770476645e-05  5.5240194020225274e-05  5.4661145661410726e-05  5.3916246644165124e-05  5.2989519874892440e-05  5.1873138138654008e-05  5.0569420824507358e-05  4.9091706496421669e-05  4.7462517873125202e-05  4.5697786515208247e-05  4.3663854069641831e-05  4.0651044412497864e-05  3.6370421758591558e-05  3.2096478775136194e-05  2.8424533142579832e-05  2.5438152520835733e-05  2.3033958180660878e-05  2.1083122341602846e-05  1.9471230648409806e-05  1.8108629049762471e-05  1.6945222230471365e-05  1.6023616157963693e-05  1.5655746333195764e-05  1.6930893885009444e-05  2.0090662868648652e-05  2.0167492148523369e-05  1.8965891173163624e-05  1.7332137908402460e-05  1.5549084265842157e-05  1.3731294302758412e-05  1.1941850312747656e-05  1.0225883868868955e-05  8.6189480376151690e-06  7.1482015034073708e-06  5.8320717718569269e-06  4.6801338111826070e-06  3.6936099514962951e-06  2.8663583331855448e-06  2.1857684513150314e-06  1.6318668158370022e-06  1.1690244800877632e-06  7.1144780153252818e-07  0.0000000000000000e+00  6.0000000000000002e-05  5.8027003941873722e-05  5.7196998583495657e-05  5.6905533477075650e-05  5.6767223364773706e-05  5.6648237028743933e-05  5.6493862794837490e-05  5.6272002830286291e-05  5.5955864235073102e-05  5.5519588341067476e-05  5.4938427327588857e-05  5.4190676432313694e-05  5.3260246882172551e-05  5.213922694143570