<?xml version="1.0"?>
<VTKFile type="UnstructuredGrid"  version="0.1"  >
<UnstructuredGrid>
<Piece  NumberOfPoints="2601" NumberOfCells="5000">
<Points>
<DataArray  type="Float64"  NumberOfComponents="3"  format="ascii">-1 0 0  -0.96 0 0  -0.92 0 0  -0.88 0 0  -0.84 0 0  -0.8 0 0  -0.76 0 0  -0.72 0 0  -0.6799999999999999 0 0  -0.64 0 0  -0.6 0 0  -0.5600000000000001 0 0  -0.52 0 0  -0.48 0 0  -0.4399999999999999 0 0  -0.4 0 0  -0.36 0 0  -0.32 0 0  -0.28 0 0  -0.24 0 0  -0.2 0 0  -0.16 0 0  -0.12 0 0  -0.07999999999999996 0 0  -0.04000000000000004 0 0  0 0 0  0.04000000000000004 0 0  0.08000000000000007 0 0  0.1200000000000001 0 0  0.1599999999999999 0 0  0.2 0 0  0.24 0 0  0.28 0 0  0.3200000000000001 0 0  0.3600000000000001 0 0  0.3999999999999999 0 0  0.4399999999999999 0 0  0.48 0 0  0.52 0 0  0.5600000000000001 0 0  0.6000000000000001 0 0  0.6399999999999999 0 0  0.6799999999999999 0 0  0.72 0 0  0.76 0 0  0.8 0 0  0.8400000000000001 0 0  0.8799999999999999 0 0  0.9199999999999999 0 0  0.96 0 0  1 0 0  -1 0.016 0  -0.96 0.016 0  -0.92 0.016 0  -0.88 0.016 0  -0.84 0.016 0  -0.8 0.016 0  -0.76 0.016 0  -0.72 0.016 0  -0.6799999999999999 0.016 0  -0.64 0.016 0  -0.6 0.016 0  -0.5600000000000001 0.016 0  -0.52 0.016 0  -0.48 0.016 0  -0.4399999999999999 0.016 0  -0.4 0.016 0  -0.36 0.016 0  -0.32 0.016 0  -0.28 0.016 0  -0.24 0.016 0  -0.2 0.016 0  -0.16 0.016 0  -0.12 0.016 0  -0.07999999999999996 0.016 0  -0.04000000000000004 0.016 0  0 0.016 0  0.04000000000000004 0.016 0  0.08000000000000007 0.016 0  0.1200000000000001 0.016 0  0.1599999999999999 0.016 0  0.2 0.016 0  0.24 0.016 0  0.28 0.016 0  0.3200000000000001 0.016 0  0.3600000000000001 0.016 0  0.3999999999999999 0.016 0  0.4399999999999999 0.016 0  0.48 0.016 0  0.52 0.016 0  0.5600000000000001 0.016 0  0.6000000000000001 0.016 0  0.6399999999999999 0.016 0  0.6799999999999999 0.016 0  0.72 0.016 0  0.76 0.016 0  0.8 0.016 0  0.8400000000000001 0.016 0  0.8799999999999999 0.016 0  0.9199999999999999 0.016 0  0.96 0.016 0  1 0.016 0  -1 0.032 0  -0.96 0.032 0  -0.92 0.032 0  -0.88 0.032 0  -0.84 0.032 0  -0.8 0.032 0  -0.76 0.032 0  -0.72 0.032 0  -0.6799999999999999 0.032 0  -0.64 0.032 0  -0.6 0.032 0  -0.5600000000000001 0.032 0  -0.52 0.032 0  -0.48 0.032 0  -0.4399999999999999 0.032 0  -0.4 0.032 0  -0.36 0.032 0  -0.32 0.032 0  -0.28 0.032 0  -0.24 0.032 0  -0.2 0.032 0  -0.16 0.032 0  -0.12 0.032 0  -0.07999999999999996 0.032 0  -0.04000000000000004 0.032 0  0 0.032 0  0.04000000000000004 0.032 0  0.08000000000000007 0.032 0  0.1200000000000001 0.032 0  0.1599999999999999 0.032 0  0.2 0.032 0  0.24 0.032 0  0.28 0.032 0  0.3200000000000001 0.032 0  0.3600000000000001 0.032 0  0.3999999999999999 0.032 0  0.4399999999999999 0.032 0  0.48 0.032 0  0.52 0.032 0  0.5600000000000001 0.032 0  0.6000000000000001 0.032 0  0.6399999999999999 0.032 0  0.6799999999999999 0.032 0  0.72 0.032 0  0.76 0.032 0  0.8 0.032 0  0.8400000000000001 0.032 0  0.8799999999999999 0.032 0  0.9199999999999999 0.032 0  0.96 0.032 0  1 0.032 0  -1 0.04800000000000001 0  -0.96 0.04800000000000001 0  -0.92 0.04800000000000001 0  -0.88 0.04800000000000001 0  -0.84 0.04800000000000001 0  -0.8 0.04800000000000001 0  -0.76 0.04800000000000001 0  -0.72 0.04800000000000001 0  -0.6799999999999999 0.04800000000000001 0  -0.64 0.04800000000000001 0  -0.6 0.04800000000000001 0  -0.5600000000000001 0.04800000000000001 0  -0.52 0.04800000000000001 0  -0.48 0.04800000000000001 0  -0.4399999999999999 0.04800000000000001 0  -0.4 0.04800000000000001 0  -0.36 0.04800000000000001 0  -0.32 0.04800000000000001 0  -0.28 0.04800000000000001 0  -0.24 0.04800000000000001 0  -0.2 0.04800000000000001 0  -0.16 0.04800000000000001 0  -0.12 0.04800000000000001 0  -0.07999999999999996 0.04800000000000001 0  -0.04000000000000004 0.04800000000000001 0  0 0.04800000000000001 0  0.04000000000000004 0.04800000000000001 0  0.08000000000000007 0.04800000000000001 0  0.1200000000000001 0.04800000000000001 0  0.1599999999999999 0.04800000000000001 0  0.2 0.04800000000000001 0  0.24 0.04800000000000001 0  0.28 0.04800000000000001 0  0.3200000000000001 0.04800000000000001 0  0.3600000000000001 0.04800000000000001 0  0.3999999999999999 0.04800000000000001 0  0.4399999999999999 0.04800000000000001 0  0.48 0.04800000000000001 0  0.52 0.04800000000000001 0  0.5600000000000001 0.04800000000000001 0  0.6000000000000001 0.04800000000000001 0  0.6399999999999999 0.04800000000000001 0  0.6799999999999999 0.04800000000000001 0  0.72 0.04800000000000001 0  0.76 0.04800000000000001 0  0.8 0.04800000000000001 0  0.8400000000000001 0.04800000000000001 0  0.8799999999999999 0.04800000000000001 0  0.9199999999999999 0.04800000000000001 0  0.96 0.04800000000000001 0  1 0.04800000000000001 0  -1 0.064 0  -0.96 0.064 0  -0.92 0.064 0  -0.88 0.064 0  -0.84 0.064 0  -0.8 0.064 0  -0.76 0.064 0  -0.72 0.064 0  -0.6799999999999999 0.064 0  -0.64 0.064 0  -0.6 0.064 0  -0.5600000000000001 0.064 0  -0.52 0.064 0  -0.48 0.064 0  -0.4399999999999999 0.064 0  -0.4 0.064 0  -0.36 0.064 0  -0.32 0.064 0  -0.28 0.064 0  -0.24 0.064 0  -0.2 0.064 0  -0.16 0.064 0  -0.12 0.064 0  -0.07999999999999996 0.064 0  -0.04000000000000004 0.064 0  0 0.064 0  0.04000000000000004 0.064 0  0.08000000000000007 0.064 0  0.1200000000000001 0.064 0  0.1599999999999999 0.064 0  0.2 0.064 0  0.24 0.064 0  0.28 0.064 0  0.3200000000000001 0.064 0  0.3600000000000001 0.064 0  0.3999999999999999 0.064 0  0.4399999999999999 0.064 0  0.48 0.064 0  0.52 0.064 0  0.5600000000000001 0.064 0  0.6000000000000001 0.064 0  0.6399999999999999 0.064 0  0.6799999999999999 0.064 0  0.72 0.064 0  0.76 0.064 0  0.8 0.064 0  0.8400000000000001 0.064 0  0.8799999999999999 0.064 0  0.9199999999999999 0.064 0  0.96 0.064 0  1 0.064 0  -1 0.08 0  -0.96 0.08 0  -0.92 0.08 0  -0.88 0.08 0  -0.84 0.08 0  -0.8 0.08 0  -0.76 0.08 0  -0.72 0.08 0  -0.6799999999999999 0.08 0  -0.64 0.08 0  -0.6 0.08 0  -0.5600000000000001 0.08 0  -0.52 0.08 0  -0.48 0.08 0  -0.4399999999999999 0.08 0  -0.4 0.08 0  -0.36 0.08 0  -0.32 0.08 0  -0.28 0.08 0  -0.24 0.08 0  -0.2 0.08 0  -0.16 0.08 0  -0.12 0.08 0  -0.07999999999999996 0.08 0  -0.04000000000000004 0.08 0  0 0.08 0  0.04000000000000004 0.08 0  0.08000000000000007 0.08 0  0.1200000000000001 0.08 0  0.1599999999999999 0.08 0  0.2 0.08 0  0.24 0.08 0  0.28 0.08 0  0.3200000000000001 0.08 0  0.3600000000000001 0.08 0  0.3999999999999999 0.08 0  0.4399999999999999 0.08 0  0.48 0.08 0  0.52 0.08 0  0.5600000000000001 0.08 0  0.6000000000000001 0.08 0  0.6399999999999999 0.08 0  0.6799999999999999 0.08 0  0.72 0.08 0  0.76 0.08 0  0.8 0.08 0  0.8400000000000001 0.08 0  0.8799999999999999 0.08 0  0.9199999999999999 0.08 0  0.96 0.08 0  1 0.08 0  -1 0.09600000000000002 0  -0.96 0.09600000000000002 0  -0.92 0.09600000000000002 0  -0.88 0.09600000000000002 0  -0.84 0.09600000000000002 0  -0.8 0.09600000000000002 0  -0.76 0.09600000000000002 0  -0.72 0.09600000000000002 0  -0.6799999999999999 0.09600000000000002 0  -0.64 0.09600000000000002 0  -0.6 0.09600000000000002 0  -0.5600000000000001 0.09600000000000002 0  -0.52 0.09600000000000002 0  -0.48 0.09600000000000002 0  -0.4399999999999999 0.09600000000000002 0  -0.4 0.09600000000000002 0  -0.36 0.09600000000000002 0  -0.32 0.09600000000000002 0  -0.28 0.09600000000000002 0  -0.24 0.09600000000000002 0  -0.2 0.09600000000000002 0  -0.16 0.09600000000000002 0  -0.12 0.09600000000000002 0  -0.07999999999999996 0.09600000000000002 0  -0.04000000000000004 0.09600000000000002 0  0 0.09600000000000002 0  0.04000000000000004 0.09600000000000002 0  0.08000000000000007 0.09600000000000002 0  0.1200000000000001 0.09600000000000002 0  0.1599999999999999 0.09600000000000002 0  0.2 0.09600000000000002 0  0.24 0.09600000000000002 0  0.28 0.09600000000000002 0  0.3200000000000001 0.09600000000000002 0  0.3600000000000001 0.09600000000000002 0  0.3999999999999999 0.09600000000000002 0  0.4399999999999999 0.09600000000000002 0  0.48 0.09600000000000002 0  0.52 0.09600000000000002 0  0.5600000000000001 0.09600000000000002 0  0.6000000000000001 0.09600000000000002 0  0.6399999999999999 0.09600000000000002 0  0.6799999999999999 0.09600000000000002 0  0.72 0.09600000000000002 0  0.76 0.09600000000000002 0  0.8 0.09600000000000002 0  0.8400000000000001 0.09600000000000002 0  0.8799999999999999 0.09600000000000002 0  0.9199999999999999 0.09600000000000002 0  0.96 0.09600000000000002 0  1 0.09600000000000002 0  -1 0.112 0  -0.96 0.112 0  -0.92 0.112 0  -0.88 0.112 0  -0.84 0.112 0  -0.8 0.112 0  -0.76 0.112 0  -0.72 0.112 0  -0.6799999999999999 0.112 0  -0.64 0.112 0  -0.6 0.112 0  -0.5600000000000001 0.112 0  -0.52 0.112 0  -0.48 0.112 0  -0.4399999999999999 0.112 0  -0.4 0.112 0  -0.36 0.112 0  -0.32 0.112 0  -0.28 0.112 0  -0.24 0.112 0  -0.2 0.112 0  -0.16 0.112 0  -0.12 0.112 0  -0.07999999999999996 0.112 0  -0.04000000000000004 0.112 0  0 0.112 0  0.04000000000000004 0.112 0  0.08000000000000007 0.112 0  0.1200000000000001 0.112 0  0.1599999999999999 0.112 0  0.2 0.112 0  0.24 0.112 0  0.28 0.112 0  0.3200000000000001 0.112 0  0.3600000000000001 0.112 0  0.3999999999999999 0.112 0  0.4399999999999999 0.112 0  0.48 0.112 0  0.52 0.112 0  0.5600000000000001 0.112 0  0.6000000000000001 0.112 0  0.6399999999999999 0.112 0  0.6799999999999999 0.112 0  0.72 0.112 0  0.76 0.112 0  0.8 0.112 0  0.8400000000000001 0.112 0  0.8799999999999999 0.112 0  0.9199999999999999 0.112 0  0.96 0.112 0  1 0.112 0  -1 0.128 0  -0.96 0.128 0  -0.92 0.128 0  -0.88 0.128 0  -0.84 0.128 0  -0.8 0.128 0  -0.76 0.128 0  -0.72 0.128 0  -0.6799999999999999 0.128 0  -0.64 0.128 0  -0.6 0.128 0  -0.5600000000000001 0.128 0  -0.52 0.128 0  -0.48 0.128 0  -0.4399999999999999 0.128 0  -0.4 0.128 0  -0.36 0.128 0  -0.32 0.128 0  -0.28 0.128 0  -0.24 0.128 0  -0.2 0.128 0  -0.16 0.128 0  -0.12 0.128 0  -0.07999999999999996 0.128 0  -0.04000000000000004 0.128 0  0 0.128 0  0.04000000000000004 0.128 0  0.08000000000000007 0.128 0  0.1200000000000001 0.128 0  0.1599
[...]
<PointData  Scalars="f_100"> 
<DataArray  type="Float64"  Name="f_100"  format="ascii">6.0000000000000002e-05  5.4143049429195234e-05  5.2611985136632767e-05  5.1731430394610484e-05  5.0838199671997920e-05  4.9692263182588947e-05  4.8207082342718203e-05  4.6375990618225019e-05  4.4249656036237191e-05  4.1922071570435677e-05  3.9513496579928259e-05  3.7150194637644294e-05  3.4944798193376300e-05  3.2981364130536963e-05  3.1307414852830972e-05  2.9932730876579528e-05  2.8831228274116100e-05  2.7927740797308935e-05  2.6985689712602931e-05  2.2127695319736213e-05  1.6295595262970574e-05  1.3565712156388829e-05  1.1586197576490672e-05  9.9625215947751420e-06  8.5365927707593773e-06  7.2365743199637676e-06  6.0360098761309777e-06  4.9354261955697690e-06  3.9543766846259712e-06  3.1419184695174769e-06  2.6481344517550721e-06  3.1120278057908662e-06  3.9381699502241989e-06  3.4000481621226487e-06  2.5721799745175766e-06  1.8203337727392299e-06  1.2342444495138036e-06  8.0923871009061775e-07  5.1516231810274494e-07  3.1910076273836699e-07  1.9258658825532600e-07  1.1337193144274856e-07  6.5159373657601160e-08  3.6595112074721389e-08  2.0100648464707722e-08  1.0806588712929207e-08  5.6908057051786788e-09  2.9356585091004299e-09  1.4737104779254508e-09  6.6280053721048419e-10  0.0000000000000000e+00  6.0000000000000002e-05  5.4417406574438529e-05  5.2879111331985738e-05  5.1994359159647563e-05  5.1097904853936918e-05  4.9947933102997960e-05  4.8457134193653138e-05  4.6618532562005522e-05  4.4482812343855979e-05  4.2144265285818122e-05  3.9723676106281657e-05  3.7347968307587317e-05  3.5130455584221076e-05  3.3155790119285141e-05  3.1471926331861272e-05  3.0088878571259029e-05  2.8980612474458615e-05  2.8072023084705535e-05  2.7113236023687864e-05  2.2701088353494786e-05  1.7103880688459627e-05  1.4243971506002302e-05  1.2163693075317046e-05  1.0461012353273541e-05  8.9679367165061826e-06  7.6075265901781985e-06  6.3509312007248816e-06  5.1979160033392972e-06  4.1681526419833508e-06  3.3108892154798152e-06  2.7752299164376126e-06  3.1510252395982261e-06  3.9599964770784793e-06  3.4220433613254983e-06  2.5894651143998637e-06  1.8328767046849918e-06  1.2429277608013170e-06  8.1503966607737808e-07  5.1891995187018042e-07  3.2146652480973435e-07  1.9403643357690841e-07  1.1423782758333341e-07  6.5663848061400574e-08  3.6882088977123365e-08  2.0260190967699896e-08  1.0893345076440934e-08  5.7369895732918844e-09  2.9597509561077363e-09  1.4860626414583785e-09  6.6917760596361862e-10  0.0000000000000000e+00  6.0000000000000002e-05  5.4687709731570735e-05  5.3145411103466685e-05  5.2257923464930743e-05  5.1358699377932736e-05  5.0204824733624963e-05  4.8708433663593339e-05  4.6862308763447108e-05  4.4717171301490468e-05  4.2367618843893525e-05  3.9934964764641983e-05  3.7546795186053468e-05  3.5317107901620826e-05  3.3331153361456357e-05  3.1637320889071664e-05  3.0245862355701299e-05  2.9130807648741574e-05  2.8217227141352789e-05  2.7245315440929400e-05  2.3225798053556062e-05  1.7905411090321800e-05  1.4920531923192636e-05  1.2745782829883261e-05  1.0967099534553680e-05  9.4082806268663716e-06  7.9879541084506778e-06  6.6751753276319256e-06  5.4691243206495057e-06  4.3897109398485666e-06  3.4864159028260431e-06  2.9067593073508780e-06  3.2013582725118508e-06  3.9861293969428800e-06  3.4455209740773633e-06  2.6072692094845647e-06  1.8456289337872155e-06  1.2517132449756365e-06  8.2089876923682801e-07  5.2271342471421689e-07  3.2385492023506979e-07  1.9550050856046671e-07  1.1511251899115166e-07  6.6173641166336706e-08  3.7172207813332795e-08  2.0421546310870700e-08  1.0981123514806758e-08  5.7837369321869637e-09  2.9841475205340121e-09  1.4985745233919002e-09  6.7560987902364831e-10  0.0000000000000000e+00  6.0000000000000002e-05  5.4953162249839798e-05  5.3410844475361464e-05  5.2522117755007306e-05  5.1620587529081712e-05  5.0462945807977699e-05  4.8960989735601763e-05  4.7107328478633801e-05  4.4952741815183207e-05  4.2592140327876592e-05  4.0147369490104217e-05  3.7746680913639093e-05  3.5504759530045938e-05  3.3507457176105583e-05  3.1803601058578851e-05  3.0403684245961544e-05  2.9281815188021052e-05  2.8363344311885863e-05  2.7381642641694655e-05  2.3708422626420741e-05  1.8680171184657843e-05  1.5591804637134456e-05  1.3330919573389382e-05  1.1479998798541959e-05  9.8572650627213690e-06  8.3777553220171897e-06  7.0087965032513912e-06  5.7491932335927463e-06  4.6192390851915370e-06  3.6687236297512485e-06  3.0432368256981597e-06  3.2617533917789606e-06  4.0166378605057578e-06  3.4705049300351366e-06  2.6255996502603192e-06  1.8585916665871733e-06  1.2606003864081752e-06  8.2681516333045933e-07  5.2654194589596135e-07  3.2626532404259321e-07  1.9697835617933262e-07  1.1599568867215848e-07  6.6688542261207202e-08  3.7465333621356882e-08  2.0584630908116996e-08  1.1069873841101521e-08  5.8310184955848279e-09  3.0088315016439552e-09  1.5112365395007787e-09  6.8209039648193033e-10  0.0000000000000000e+00  6.0000000000000002e-05  5.5213205466885613e-05  5.3675387591137276e-05  5.2786940389282028e-05  5.1883574581808413e-05  5.0722304066270053e-05  4.9214811052176151e-05  4.7353600519863781e-05  4.5189532369651256e-05  4.2817837503768153e-05  4.0360897055855338e-05  3.7947631144388713e-05  3.5693415032556051e-05  3.3684705191795113e-05  3.1970769766947911e-05  3.0562346683620190e-05  2.9433636902978878e-05  2.8510368989962073e-05  2.7521930166034518e-05  2.4154829107022519e-05  1.9418513667053478e-05  1.6255209533592892e-05  1.3917766867360597e-05  1.1999019663507857e-05  1.0314584816333540e-05  8.7768657696953814e-06  7.3518785630262209e-06  6.0382912277078586e-06  4.8569476317795148e-06  3.8580487857133953e-06  3.1851022743951076e-06  3.3312890854485889e-06  4.0515764301945801e-06  3.4970132861354209e-06  2.6444617782776543e-06  1.8717657326181365e-06  1.2695887631206576e-06  8.3278817929130553e-07  5.3040489849568815e-07  3.2869724716223406e-07  1.9846961754493583e-07  1.1688708693702888e-07  6.7208384953650843e-08  3.7761359608417997e-08  2.0749378511239686e-08  1.1159556226229948e-08  5.8788109967607800e-09  3.0337896199208670e-09  1.5240410702749530e-09  6.8861403992273571e-10  0.0000000000000000e+00  6.0000000000000002e-05  5.5467475360548399e-05  5.3939030619986201e-05  5.3052393453381332e-05  5.2147666789285909e-05  5.0982907310048958e-05  4.9469905997173263e-05  4.7601133345344532e-05  4.5427551111008782e-05  4.3044717883931794e-05  4.0575554109077419e-05  3.8149651550414956e-05  3.5883079125715117e-05  3.3862901297636658e-05  3.2138830268603553e-05  3.0721852463203264e-05  2.9586274937693801e-05  2.8658297749283717e-05  2.7665895950047788e-05  2.4570158064419135e-05  2.0116816450505787e-05  1.6908681255197076e-05  1.4505136754053197e-05  1.2523542554836512e-05  1.0779978208312856e-05  9.1852532930992170e-06  7.7045327891168981e-06  6.3366118704291430e-06  5.1030694845079565e-06  4.0546421023730551e-06  3.3327440619086405e-06  3.4093031785974725e-06  4.0909849092675469e-06  3.5250583577694218e-06  2.6638589639611286e-06  1.8851515696679396e-06  1.2786780069139047e-06  8.3881729525791483e-07  5.3430180642518841e-07  3.3115031146497875e-07  1.9997401404488990e-07  1.1778651916689585e-07  6.7733039102613129e-08  3.8060202011063080e-08  2.0915737037996822e-08  1.1250139298873739e-08  5.9270960814031500e-09  3.0590113863833641e-09  1.5369820998099514e-09  6.9517718079890988e-10  0.0000000000000000e+00  6.0000000000000002e-05  5.5715766576567832e-05  5.4201776285884470e-05  5.3318482606502138e-05  5.2412871374524096e-05  5.1244763447178847e-05  4.9726282763297319e-05  4.7849935133029038e-05  4.5666805914779660e-05  4.3272788779260388e-05  4.0791347200273465e-05  3.8352747825454164e-05  3.6073756658721700e-05  3.4042049602834437e-05  3.2307786092597517e-05  3.0882204672522644e-05  2.9739731700529855e-05  2.8807128648059298e-05  2.7813268603047010e-05  2.4958872015430395e-05  2.0774882056523339e-05  1.7550526829687083e-05  1.5091973865099027e-05  1.3053012518305288e-05  1.1253224982780107e-05  9.6029180036175643e-06  8.0668986366233751e-06  6.6443745333688652e-06  5.3578606597114887e-06  4.2587711716436963e-06  3.4865166762411654e-06  3.4953260847029628e-06  4.1348887628577061e-06  3.5546468177177166e-06  2.6837926710821662e-06  1.8987492115565960e-06  1.2878677705997338e-06  8.4490210378268381e-07  5.3823230738870297e-07  3.3362422931983941e-07  2.0149133272456818e-07  1.1869383580752532e-07  6.8262404224601482e-08  3.8361795896872790e-08  2.1083665982807499e-08  1.1341598595363119e-08  5.9758594048794341e-09  3.0844885886150367e-09  1.5500549216949760e-09  7.0177739305926761e-10  0.0000000000000000e+00  6.0000000000000002e-05  5.5958002627045684e-05  5.4463638836602315e-05  5.3585216953529234e-05  5.2679196521854530e-05  5.1507880528574574e-05  4.9983949407603830e-05  4.8100013841373093e-05  4.5907304441813169e-05  4.3502057341983488e-05  4.1008282807224366e-05  3.8556925687594436e-05  3.6265452596052175e-05  3.4222154403257404e-05  3.2477640998740219e-05  3.1043406643649967e-05  2.9894009808742698e-05  2.8956860679141704e-05  2.7963790913912322e-05  2.5324823407505055e-05  2.1394387725222173e-05  1.8179408852380086e-05  1.5677356983924249e-05  1.3586941187890186e-05  1.1734148732980792e-05  1.0029894830801574e-05  8.4391460670552661e-06  6.9618262939125463e-06  5.6216019037104933e-06  4.4707227388942207e-06  3.6467541285138123e-06  3.5890326457791195e-06  4.1832998427910833e-06  3.5857797701690247e-06  2.7042625115441697e-06  1.9125582784985506e-06  1.2971577012186008e-06  8.5104228496840160e-07  5.4219613073118924e-07  3.3611878685381060e-07  2.0302141432390876e-07  1.1960892418614535e-07  6.8796404104480349e-08  3.8666091735240708e-08  2.1253134303053428e-08  1.1433915295011462e-08  6.0250898961603979e-09  3.1102148719008227e-09  1.5632558994272148e-09  7.0841321862335858e-10  0.0000000000000000e+00  6.0000000000000002e-05  5.6194211249797316e-05  5.4724643315496908e-05  5.3852608933573018e-05  5.2946651367838015e-05  5.1772266777850616e-05  5.0242913897044234e-05  4.8351377259303622e-05  4.6149054184250953e-05  4.3732530600797851e-05  4.1226367354563748e-05  3.8762190881362155e-05  3.6458172003031225e-05  3.4403220153823051e-05  3.2648398941453355e-05  3.1205461912643907e-05  3.0049112044097006e-05  2.9107493341596552e-05  2.8117221988934564e-05  2.5671328436535213e-05  2.1977968918198834e-05  1.8794357043402869e-05  1.6260506674013845e-05  1.4124912805569770e-05  1.2222621724209627e-05  1.0466257505838063e-05  8.8214788189875762e-06  7.2892445511756636e-06  5.8946008455401477e-06  4.6908049506802873e-06  3.8137804497619327e-06  3.6902073340266743e-06  4.2362172257781788e-06  3.6184528066338973e-06  2.7252662934618608e-06  1.9265779700716169e-06  1.3065474183135553e-06  8.5723758450722079e-07  5.4619307930299379e-07  3.3863383024723794e-07  2.0456414348784155e-07  1.2053170181897242e-07  6.9334982390695713e-08  3.8973052596271064e-08  2.1424118693572675e-08  1.1527075188313172e-08  6.0747791576165092e-09  3.1361853978593760e-09  1.5765822712015741e-09  7.1508397631318562e-10  0.0000000000000000e+00  6.0000000000000002e-05  5.6424504082442590e-05  5.4984825034155375e-05  5.4120674218700960e-05  5.3215245990854122e-05  5.2037930614868007e-05  5.0503184145726026e-05  4.8604033047284911e-05  4.6392062503312082e-05  4.3964215489701415e-05  4.1445607229776560e-05  3.8968549179313438e-05  3.6651920033840581e-05  3.4585251445685740e-05  3.2820064039988252e-05  3.1368374186483111e-05  3.0205041317341119e-05  2.9259026312700339e-05  2.8273338348433474e-05  2.6001239225319127e-05  2.2528684207008787e-05  1.9394772351559879e-05  1.6840794396511708e-05  1.4666592100834564e-05  1.2718570979870153e-05  1.0912123370251086e-05  9.2141382572459891e-06  7.6269401037135821e-06  6.1771945079040116e-06  4.9193496566996867e-06  3.9879180311204162e-06  3.7987190795343330e-06  4.2936280418757637e-06  3.6526560498194975e-06  2.7468000649679583e-06  1.9408070607801181e-06  1.3160364964870776e-06  8.6348779577751193e-07  5.5022301462611986e-07  3.4116925451750327e-07  2.0611944075603215e-07  1.2146211093786178e-07  6.9878098994980457e-08  3.9282651862636419e-08  2.1596602177978523e-08  1.1621067835082279e-08  6.1249209755791649e-09  3.1623965662166132e-09  1.5900319908135680e-09  7.2178960650962152e-10  0.0000000000000000e+00  6.0000000000000002e-05  5.6649059942371568e-05  5.5244229171138888e-05  5.4389431618208267e-05  5.3484991398814990e-05  5.2304880674004181e-05  5.0764768045273231e-05  4.8857988771037401e-05  4.6636336660348930e-05  4.4197118871663479e-05  4.1666008796279566e-05  3.9176006383244796e-05  3.6846701921558359e-05  3.4768252987396016e-05  3.2992640553891693e-05  3.1532147315931320e-05  3.0361800639826423e-05  2.9411459202329184e-05  2.8431934244392865e-05  2.6317010607578755e-05  2.3049709321112127e-05  1.9980415052828964e-05  1.7417751110227234e-05  1.5211732846516906e-05  1.3221985017099908e-05  1.1367658680414688e-05  9.6174076061501513e-06  7.9752605505315512e-06  6.4697520805086739e-06  5.1567148182004769e-06  4.1694943879793731e-06  3.9145030500484082e-06  4.3555082160594729e-06  3.6883741907282881e-06  2.7688581557302117e-06  1.9552438981749395e-06  1.3256244515967958e-06  8.6979274530310032e-07  5.5428584477533418e-07  3.4372499434262199e-07  2.0768725600907990e-07  1.2240011401388986e-07  7.0425727149415646e-08  3.9594871360302842e-08  2.1770572958527530e-08  1.1715885877503305e-08  6.1755109211887267e-09  3.1888457880188403e-09  1.6036035979497953e-09  7.2853054516650279e-10  0.0000000000000000e+00  6.0000000000000002e-05  5.6868111118828479e-05  5.5502910442907539e-05  5.4658902984940717e-05  5.3755899514590793e-05  5.2573125817841131e-05  5.1027673489432956e-05  4.9113251929190443e-05  4.6881883842369010e-05  4.4431247558060343e-05  4.1887578404121400e-05  3.9384568325112782e-05  3.7042522969888730e-05  3.4952229589341659e-05  3.3166132862796944e-05  3.1696785273285982e-05  3.0519393100909439e-05  2.9564791374366900e-05  2.8592821406461915e-05  2.6620759929947927e-05  2.3544168397881347e-05  2.0551378983494621e-05  1.7991074375821987e-05  1.5760186440130063e-05  1.3732920892235201e-05  1.1833084225477658e-05  1.0031616459022383e-05  8.3345939383839436e-06  6.7726779032333749e-06  5.4032870479993402e-06  4.3588477774791374e-06  4.0375474651678231e-06  4.4218230767792737e-06  3.7255865234809520e-06  2.7914332177920886e-06  1.9698864034754297e-06  1.3353107300532412e-06  8.7615228100188569e-07  5.5838151449236086e-07  3.4630101655717420e-07  2.0926756310677361e-07  1.2334569009605638e-07  7.0977851000543455e-08  3.9909699831233624e-08  2.1946023476945265e-08  1.1811524479505106e-08  6.2265460248252041e-09  3.2155313007455800e-09  1.6172961123906200e-09  7.3530762193932636e-10  0.0000000000000000e+00  6.0000000000000002e-05  5.7081932179861335e-05  5.5760932808837492e-05  5.4929113121056009e-05  5.4027983158849806e-05  5.2842675146859168e-05  5.1291908393876654e-05  4.9369829975925574e-05  4.7128711183005668e-05  4.4666608324639409e-05  4.2110322398741271e-05  3.9594240867732139e-05  3.7239388546298163e-05  3.5137186150899632e-05  3.3340545449778554e-05  3.1862292134146850e-05  3.0677821850052888e-05  2.9719021822140691e-05  2.8755828378237673e-05  2.6914319509966211e-05  2.4015046905972077e-05  2.1108057117614585e-05  1.8560633496933359e-05  1.6311910154514300e-05  1.4251511362437743e-05  1.2308681153832409e-05  1.0457145502035769e-05  8.7053726114496893e-06  7.0864146299440996e-06  5.6594842926756798e-06  4.5563319887865356e-06  4.1678840670564457e-06  4.4925278060338551e-06  3.7642669816942863e-06  2.8145162670455388e-06  1.9847320746253533e-06  1.3450947007714965e-06  8.8256626275149074e-07  5.6250999713749077e-07  3.4889731401917805e-07  2.1086035550184109e-07  1.2429883181630475e-07  7.1534463642141655e-08  4.0227131685228775e-08  2.2122949647336456e-08  1.1907980869119695e-08  6.2780245104935119e-09  3.2424520175432289e-09  1.6311089476665976e-09  7.4212197811065387e-10  0.0000000000000000e+00  6.0000000000000002e-05  5.7290830877777898e-05  5.6018369184158611e-05  5.5200089681268183e-05  5.4301256030109027e-05  5.3113538005633382e-05  5.1557480711982442e-05  4.9627730339481882e-05  4.7376825779747122e-05  4.4903207924637997e-05  4.2334247128145074e-05  3.9805029905306837e-05  3.7437304076321286e-05  3.5323127649826758e-05  3.3515882887642600e-05  3.2028672062492895e-05  3.0837090082762088e-05  2.9874149086993821e-05  2.8920799568689603e-05  2.7199282047325096e-05  2.4465152746783328e-05  2.1651103594158357e-05  1.9126472565320537e-05  1.6866974872055854e-05  1.4777972049679341e-05  1.2794796944668486e-05  1.0894431414861854e-05  9.0880772373091761e-06  7.4114465563205713e-06  5.9257586602925699e-06  4.7623205452567692e-06  4.3055812555606166e-06  4.5675677189997667e-06  3.8043841796897947e-06  2.8380967263917012e-06  1.9997779917059628e-06  1.3549756494018128e-06  8.8903455488222078e-07  5.6667128815348496e-07  3.5151390060069572e-07  2.1246564265175206e-07  1.2525954293904392e-07  7.2095565506168357e-08  4.0547165979524367e-08  2.2301350229419127e-08  1.2005253964769470e-08  6.3299455790418269e-09  3.2696074042349284e-09  1.6450418405370589e-09  7.4897500075562462e-10  0.0000000000000000e+00  6.0000000000000002e-05  5.7495140804539195e-05  5.6275301143509122e-05  5.5471863072121757e-05  5.4575732681866152e-05  5.3385723985955975e-05  5.1824398447250844e-05  4.9886960437242916e-05  4.7626234708090001e-05  4.5141053099571574e-05  4.2559358948792209e-05  4.0016941363835791e-05  3.7636275038838808e-05  3.5510059133497798e-05  3.3692149827633327e-05  3.2195929298480933e-05  3.0997201029666697e-05  3.0030171210944167e-05  2.9087594113724157e-05  2.7477039609030602e-05  2.4897105373080313e-05  2.2181396127387545e-05  1.9688811526080282e-05  1.7425572220401125e-05  1.5312608538955390e-05  1.3291851483837906e-05  1.1343971923676663e-05  9.4832409927676225e-06  7.7483031017839918e-06  6.2025993939755274e-06  4.9772104987051449e-06  4.4507391718713990e-06  4.6468783698425785e-06  3.8459014613712495e-06  2.8621624714346632e-06  2.0150208246224942e-06  1.3649527745246387e-06  8.9555702027541774e-07  5.7086539977442207e-07  3.5415080709929105e-07  2.1408344708312192e-07  1.2622783635539811e-07  7.2661163045999951e-08  4.0869805584131009e-08  2.2481226316122361e-08  1.2103344069916045e-08  6.3823092311333923e-09  3.2969973789297573e-09  1.6590947933314393e-09  7.5586827021712358e-10  0.0000000000000000e+00  6.0000000000000002e-05  5.7695215505312206e-05  5.6531818604309695e-05  5.5744466346231265e-05  5.4851428496745411e-05  5.3659242927246226e-05  5.2092669662896372e-05  5.0147527687999694e-05  4.7876945033166448e-05  4.5380150588114077e-05  4.2785664230432949e-05  4.0229981201425621e-05  3.7836306962162308e-05  3.5697985711666771e-05  3.3869350990127327e-05  3.2364068148481884e-05  3.1158157948194612e-05  3.0187085715975019e-05  2.9256084619061726e-05  2.7748816937797415e-05  2.5313340837293315e-05  2.2700001418873394e-05  2.0248045558502629e-05  1.7988021094391666e-05  1.5855823370588506e-05  1.3800343216283161e-05  1.1806330989271403e-05  9.8914538982672037e-06  8.0975624391792034e-06  6.4905359909284924e-06  5.2014259528551958e-06  4.6034862130617715e-06  4.7303854856081826e-06  3.8887769592815875e-06  2.8866998793760177e-06  2.0304568429752244e-06  1.3750251855451527e-06  9.0213351580085868e-07  5.7509235675944171e-07  3.5680807790371448e-07  2.1571380198940234e-07  1.2720373244041498e-07  7.3231267658012190e-08  4.1195056498522436e-08  2.2662580914315164e-08  1.2202252623346376e-08  6.4351161225545071e-09  3.3246222300045531e-09  1.6732680267399245e-09  7.6280351847469866e-10  0.0000000000000000e+00  6.0000000000000002e-05  5.7891423805950347e-05  5.6788019483846922e-05  5.6017935090728708e-05  5.5128359657640297e-05  5.3934104914559173e-05  5.2362302489067117e-05  5.0409439521881812e-05  4.8128963819298187e-05  4.5620507133418586e-05  4.3013169360092685e-05  4.0444155408535481e-05  3.8037405420787913e-05  3.588691255048246