<?xml version="1.0"?>
<VTKFile type="UnstructuredGrid"  version="0.1"  >
<UnstructuredGrid>
<Piece  NumberOfPoints="2601" NumberOfCells="5000">
<Points>
<DataArray  type="Float64"  NumberOfComponents="3"  format="ascii">-1 0 0  -0.96 0 0  -0.92 0 0  -0.88 0 0  -0.84 0 0  -0.8 0 0  -0.76 0 0  -0.72 0 0  -0.6799999999999999 0 0  -0.64 0 0  -0.6 0 0  -0.5600000000000001 0 0  -0.52 0 0  -0.48 0 0  -0.4399999999999999 0 0  -0.4 0 0  -0.36 0 0  -0.32 0 0  -0.28 0 0  -0.24 0 0  -0.2 0 0  -0.16 0 0  -0.12 0 0  -0.07999999999999996 0 0  -0.04000000000000004 0 0  0 0 0  0.04000000000000004 0 0  0.08000000000000007 0 0  0.1200000000000001 0 0  0.1599999999999999 0 0  0.2 0 0  0.24 0 0  0.28 0 0  0.3200000000000001 0 0  0.3600000000000001 0 0  0.3999999999999999 0 0  0.4399999999999999 0 0  0.48 0 0  0.52 0 0  0.5600000000000001 0 0  0.6000000000000001 0 0  0.6399999999999999 0 0  0.6799999999999999 0 0  0.72 0 0  0.76 0 0  0.8 0 0  0.8400000000000001 0 0  0.8799999999999999 0 0  0.9199999999999999 0 0  0.96 0 0  1 0 0  -1 0.016 0  -0.96 0.016 0  -0.92 0.016 0  -0.88 0.016 0  -0.84 0.016 0  -0.8 0.016 0  -0.76 0.016 0  -0.72 0.016 0  -0.6799999999999999 0.016 0  -0.64 0.016 0  -0.6 0.016 0  -0.5600000000000001 0.016 0  -0.52 0.016 0  -0.48 0.016 0  -0.4399999999999999 0.016 0  -0.4 0.016 0  -0.36 0.016 0  -0.32 0.016 0  -0.28 0.016 0  -0.24 0.016 0  -0.2 0.016 0  -0.16 0.016 0  -0.12 0.016 0  -0.07999999999999996 0.016 0  -0.04000000000000004 0.016 0  0 0.016 0  0.04000000000000004 0.016 0  0.08000000000000007 0.016 0  0.1200000000000001 0.016 0  0.1599999999999999 0.016 0  0.2 0.016 0  0.24 0.016 0  0.28 0.016 0  0.3200000000000001 0.016 0  0.3600000000000001 0.016 0  0.3999999999999999 0.016 0  0.4399999999999999 0.016 0  0.48 0.016 0  0.52 0.016 0  0.5600000000000001 0.016 0  0.6000000000000001 0.016 0  0.6399999999999999 0.016 0  0.6799999999999999 0.016 0  0.72 0.016 0  0.76 0.016 0  0.8 0.016 0  0.8400000000000001 0.016 0  0.8799999999999999 0.016 0  0.9199999999999999 0.016 0  0.96 0.016 0  1 0.016 0  -1 0.032 0  -0.96 0.032 0  -0.92 0.032 0  -0.88 0.032 0  -0.84 0.032 0  -0.8 0.032 0  -0.76 0.032 0  -0.72 0.032 0  -0.6799999999999999 0.032 0  -0.64 0.032 0  -0.6 0.032 0  -0.5600000000000001 0.032 0  -0.52 0.032 0  -0.48 0.032 0  -0.4399999999999999 0.032 0  -0.4 0.032 0  -0.36 0.032 0  -0.32 0.032 0  -0.28 0.032 0  -0.24 0.032 0  -0.2 0.032 0  -0.16 0.032 0  -0.12 0.032 0  -0.07999999999999996 0.032 0  -0.04000000000000004 0.032 0  0 0.032 0  0.04000000000000004 0.032 0  0.08000000000000007 0.032 0  0.1200000000000001 0.032 0  0.1599999999999999 0.032 0  0.2 0.032 0  0.24 0.032 0  0.28 0.032 0  0.3200000000000001 0.032 0  0.3600000000000001 0.032 0  0.3999999999999999 0.032 0  0.4399999999999999 0.032 0  0.48 0.032 0  0.52 0.032 0  0.5600000000000001 0.032 0  0.6000000000000001 0.032 0  0.6399999999999999 0.032 0  0.6799999999999999 0.032 0  0.72 0.032 0  0.76 0.032 0  0.8 0.032 0  0.8400000000000001 0.032 0  0.8799999999999999 0.032 0  0.9199999999999999 0.032 0  0.96 0.032 0  1 0.032 0  -1 0.04800000000000001 0  -0.96 0.04800000000000001 0  -0.92 0.04800000000000001 0  -0.88 0.04800000000000001 0  -0.84 0.04800000000000001 0  -0.8 0.04800000000000001 0  -0.76 0.04800000000000001 0  -0.72 0.04800000000000001 0  -0.6799999999999999 0.04800000000000001 0  -0.64 0.04800000000000001 0  -0.6 0.04800000000000001 0  -0.5600000000000001 0.04800000000000001 0  -0.52 0.04800000000000001 0  -0.48 0.04800000000000001 0  -0.4399999999999999 0.04800000000000001 0  -0.4 0.04800000000000001 0  -0.36 0.04800000000000001 0  -0.32 0.04800000000000001 0  -0.28 0.04800000000000001 0  -0.24 0.04800000000000001 0  -0.2 0.04800000000000001 0  -0.16 0.04800000000000001 0  -0.12 0.04800000000000001 0  -0.07999999999999996 0.04800000000000001 0  -0.04000000000000004 0.04800000000000001 0  0 0.04800000000000001 0  0.04000000000000004 0.04800000000000001 0  0.08000000000000007 0.04800000000000001 0  0.1200000000000001 0.04800000000000001 0  0.1599999999999999 0.04800000000000001 0  0.2 0.04800000000000001 0  0.24 0.04800000000000001 0  0.28 0.04800000000000001 0  0.3200000000000001 0.04800000000000001 0  0.3600000000000001 0.04800000000000001 0  0.3999999999999999 0.04800000000000001 0  0.4399999999999999 0.04800000000000001 0  0.48 0.04800000000000001 0  0.52 0.04800000000000001 0  0.5600000000000001 0.04800000000000001 0  0.6000000000000001 0.04800000000000001 0  0.6399999999999999 0.04800000000000001 0  0.6799999999999999 0.04800000000000001 0  0.72 0.04800000000000001 0  0.76 0.04800000000000001 0  0.8 0.04800000000000001 0  0.8400000000000001 0.04800000000000001 0  0.8799999999999999 0.04800000000000001 0  0.9199999999999999 0.04800000000000001 0  0.96 0.04800000000000001 0  1 0.04800000000000001 0  -1 0.064 0  -0.96 0.064 0  -0.92 0.064 0  -0.88 0.064 0  -0.84 0.064 0  -0.8 0.064 0  -0.76 0.064 0  -0.72 0.064 0  -0.6799999999999999 0.064 0  -0.64 0.064 0  -0.6 0.064 0  -0.5600000000000001 0.064 0  -0.52 0.064 0  -0.48 0.064 0  -0.4399999999999999 0.064 0  -0.4 0.064 0  -0.36 0.064 0  -0.32 0.064 0  -0.28 0.064 0  -0.24 0.064 0  -0.2 0.064 0  -0.16 0.064 0  -0.12 0.064 0  -0.07999999999999996 0.064 0  -0.04000000000000004 0.064 0  0 0.064 0  0.04000000000000004 0.064 0  0.08000000000000007 0.064 0  0.1200000000000001 0.064 0  0.1599999999999999 0.064 0  0.2 0.064 0  0.24 0.064 0  0.28 0.064 0  0.3200000000000001 0.064 0  0.3600000000000001 0.064 0  0.3999999999999999 0.064 0  0.4399999999999999 0.064 0  0.48 0.064 0  0.52 0.064 0  0.5600000000000001 0.064 0  0.6000000000000001 0.064 0  0.6399999999999999 0.064 0  0.6799999999999999 0.064 0  0.72 0.064 0  0.76 0.064 0  0.8 0.064 0  0.8400000000000001 0.064 0  0.8799999999999999 0.064 0  0.9199999999999999 0.064 0  0.96 0.064 0  1 0.064 0  -1 0.08 0  -0.96 0.08 0  -0.92 0.08 0  -0.88 0.08 0  -0.84 0.08 0  -0.8 0.08 0  -0.76 0.08 0  -0.72 0.08 0  -0.6799999999999999 0.08 0  -0.64 0.08 0  -0.6 0.08 0  -0.5600000000000001 0.08 0  -0.52 0.08 0  -0.48 0.08 0  -0.4399999999999999 0.08 0  -0.4 0.08 0  -0.36 0.08 0  -0.32 0.08 0  -0.28 0.08 0  -0.24 0.08 0  -0.2 0.08 0  -0.16 0.08 0  -0.12 0.08 0  -0.07999999999999996 0.08 0  -0.04000000000000004 0.08 0  0 0.08 0  0.04000000000000004 0.08 0  0.08000000000000007 0.08 0  0.1200000000000001 0.08 0  0.1599999999999999 0.08 0  0.2 0.08 0  0.24 0.08 0  0.28 0.08 0  0.3200000000000001 0.08 0  0.3600000000000001 0.08 0  0.3999999999999999 0.08 0  0.4399999999999999 0.08 0  0.48 0.08 0  0.52 0.08 0  0.5600000000000001 0.08 0  0.6000000000000001 0.08 0  0.6399999999999999 0.08 0  0.6799999999999999 0.08 0  0.72 0.08 0  0.76 0.08 0  0.8 0.08 0  0.8400000000000001 0.08 0  0.8799999999999999 0.08 0  0.9199999999999999 0.08 0  0.96 0.08 0  1 0.08 0  -1 0.09600000000000002 0  -0.96 0.09600000000000002 0  -0.92 0.09600000000000002 0  -0.88 0.09600000000000002 0  -0.84 0.09600000000000002 0  -0.8 0.09600000000000002 0  -0.76 0.09600000000000002 0  -0.72 0.09600000000000002 0  -0.6799999999999999 0.09600000000000002 0  -0.64 0.09600000000000002 0  -0.6 0.09600000000000002 0  -0.5600000000000001 0.09600000000000002 0  -0.52 0.09600000000000002 0  -0.48 0.09600000000000002 0  -0.4399999999999999 0.09600000000000002 0  -0.4 0.09600000000000002 0  -0.36 0.09600000000000002 0  -0.32 0.09600000000000002 0  -0.28 0.09600000000000002 0  -0.24 0.09600000000000002 0  -0.2 0.09600000000000002 0  -0.16 0.09600000000000002 0  -0.12 0.09600000000000002 0  -0.07999999999999996 0.09600000000000002 0  -0.04000000000000004 0.09600000000000002 0  0 0.09600000000000002 0  0.04000000000000004 0.09600000000000002 0  0.08000000000000007 0.09600000000000002 0  0.1200000000000001 0.09600000000000002 0  0.1599999999999999 0.09600000000000002 0  0.2 0.09600000000000002 0  0.24 0.09600000000000002 0  0.28 0.09600000000000002 0  0.3200000000000001 0.09600000000000002 0  0.3600000000000001 0.09600000000000002 0  0.3999999999999999 0.09600000000000002 0  0.4399999999999999 0.09600000000000002 0  0.48 0.09600000000000002 0  0.52 0.09600000000000002 0  0.5600000000000001 0.09600000000000002 0  0.6000000000000001 0.09600000000000002 0  0.6399999999999999 0.09600000000000002 0  0.6799999999999999 0.09600000000000002 0  0.72 0.09600000000000002 0  0.76 0.09600000000000002 0  0.8 0.09600000000000002 0  0.8400000000000001 0.09600000000000002 0  0.8799999999999999 0.09600000000000002 0  0.9199999999999999 0.09600000000000002 0  0.96 0.09600000000000002 0  1 0.09600000000000002 0  -1 0.112 0  -0.96 0.112 0  -0.92 0.112 0  -0.88 0.112 0  -0.84 0.112 0  -0.8 0.112 0  -0.76 0.112 0  -0.72 0.112 0  -0.6799999999999999 0.112 0  -0.64 0.112 0  -0.6 0.112 0  -0.5600000000000001 0.112 0  -0.52 0.112 0  -0.48 0.112 0  -0.4399999999999999 0.112 0  -0.4 0.112 0  -0.36 0.112 0  -0.32 0.112 0  -0.28 0.112 0  -0.24 0.112 0  -0.2 0.112 0  -0.16 0.112 0  -0.12 0.112 0  -0.07999999999999996 0.112 0  -0.04000000000000004 0.112 0  0 0.112 0  0.04000000000000004 0.112 0  0.08000000000000007 0.112 0  0.1200000000000001 0.112 0  0.1599999999999999 0.112 0  0.2 0.112 0  0.24 0.112 0  0.28 0.112 0  0.3200000000000001 0.112 0  0.3600000000000001 0.112 0  0.3999999999999999 0.112 0  0.4399999999999999 0.112 0  0.48 0.112 0  0.52 0.112 0  0.5600000000000001 0.112 0  0.6000000000000001 0.112 0  0.6399999999999999 0.112 0  0.6799999999999999 0.112 0  0.72 0.112 0  0.76 0.112 0  0.8 0.112 0  0.8400000000000001 0.112 0  0.8799999999999999 0.112 0  0.9199999999999999 0.112 0  0.96 0.112 0  1 0.112 0  -1 0.128 0  -0.96 0.128 0  -0.92 0.128 0  -0.88 0.128 0  -0.84 0.128 0  -0.8 0.128 0  -0.76 0.128 0  -0.72 0.128 0  -0.6799999999999999 0.128 0  -0.64 0.128 0  -0.6 0.128 0  -0.5600000000000001 0.128 0  -0.52 0.128 0  -0.48 0.128 0  -0.4399999999999999 0.128 0  -0.4 0.128 0  -0.36 0.128 0  -0.32 0.128 0  -0.28 0.128 0  -0.24 0.128 0  -0.2 0.128 0  -0.16 0.128 0  -0.12 0.128 0  -0.07999999999999996 0.128 0  -0.04000000000000004 0.128 0  0 0.128 0  0.04000000000000004 0.128 0  0.08000000000000007 0.128 0  0.1200000000000001 0.128 0  0.1599
[...]
<PointData  Scalars="f_100"> 
<DataArray  type="Float64"  Name="f_100"  format="ascii">6.0000000000000002e-05  5.4282912560089275e-05  5.3020280271733207e-05  5.2604289696814680e-05  5.2434856475841048e-05  5.2319011665301244e-05  5.2185613885758514e-05  5.1999639438204922e-05  5.1735701328516378e-05  5.1370522950576016e-05  5.0881791464969893e-05  5.0249335522106232e-05  4.9457174600493485e-05  4.8495742076825792e-05  4.7363765534073890e-05  4.6069108931936756e-05  4.4625680281929069e-05  4.3023512003908351e-05  4.1054526256252121e-05  3.3074884970625605e-05  2.3877830029132074e-05  1.9601300144703709e-05  1.6693935592819131e-05  1.4556790826103692e-05  1.2927324880983247e-05  1.1652268557701149e-05  1.0631940855476633e-05  9.8061197598013535e-06  9.1695594342866422e-06  8.8504389266469561e-06  9.3855397403169452e-06  1.3012108441592667e-05  1.8190068953866895e-05  1.8960524698648934e-05  1.8139272140886496e-05  1.6741620143493243e-05  1.5140408033840727e-05  1.3476718774803353e-05  1.1818842277333901e-05  1.0211535013823902e-05  8.6895252176893077e-06  7.2802246225444515e-06  6.0036544002987430e-06  4.8721061321396776e-06  3.8902340674735673e-06  3.0555548509232684e-06  2.3587358683589044e-06  1.7816226761289058e-06  1.2862540850870679e-06  7.7415996509158297e-07  0.0000000000000000e+00  6.0000000000000002e-05  5.4557005555492731e-05  5.3287647436271370e-05  5.2868618905933870e-05  5.2698130201608151e-05  5.2581786302752771e-05  5.2447950877884645e-05  5.2261391118884845e-05  5.1996589276046953e-05  5.1630152736947973e-05  5.1139651619094972e-05  5.0504798050874350e-05  4.9709504306799142e-05  4.8744117804110670e-05  4.7607314044010821e-05  4.6306951426944689e-05  4.4857002633905559e-05  4.3247885988923701e-05  4.1251682057213377e-05  3.3944688055987205e-05  2.5078142298105932e-05  2.0588615060625633e-05  1.7522164447737223e-05  1.5269484782352877e-05  1.3553099519205660e-05  1.2210963286019439e-05  1.1137616946262520e-05  1.0268615299676582e-05  9.5952120071193445e-06  9.2418409259740238e-06  9.7395075132130459e-06  1.3149640977541844e-05  1.8272848924011962e-05  1.9060119253188606e-05  1.8237324420766478e-05  1.6833594859643616e-05  1.5224694077855247e-05  1.3552699657924299e-05  1.1886330577969161e-05  1.0270604019415929e-05  8.7404518654351426e-06  7.3234567611325755e-06  6.0397779073435800e-06  4.9018074802227953e-06  3.9142603056998468e-06  3.0746747513203368e-06  2.3737064528649248e-06  1.7931666125081910e-06  1.2950578143962744e-06  7.8092944437971109e-07  0.0000000000000000e+00  6.0000000000000002e-05  5.4827053004443684e-05  5.3554193826338994e-05  5.3133591379306041e-05  5.2962508231576994e-05  5.2845810241166857e-05  5.2711581911897165e-05  5.2524449232855465e-05  5.2258784908113826e-05  5.1891086721500398e-05  5.1398809432023738e-05  5.0761548823204179e-05  4.9963109681508690e-05  4.8993753107585188e-05  4.7852102447390613e-05  4.6546012597151483e-05  4.5089540261236743e-05  4.3473655387643680e-05  4.1455684220005437e-05  3.4739395307651441e-05  2.6268755829229946e-05  2.1573670519186234e-05  1.8357334482310156e-05  1.5993472487001588e-05  1.4192367098767802e-05  1.2784278735107263e-05  1.1658422801491276e-05  1.0746309801226939e-05  1.0035657718708095e-05  9.6467042567365482e-06  1.0101419181026983e-05  1.3317703736770404e-05  1.8368179662688614e-05  1.9164291093821063e-05  1.8337188331308367e-05  1.6926469926793215e-05  1.5309567364931192e-05  1.3629141810118100e-05  1.1954212052090515e-05  1.0330016149298938e-05  8.7916777982962279e-06  7.3669474335074593e-06  6.0761218185547586e-06  4.9316939918192050e-06  3.9384397374523773e-06  3.0939194496530801e-06  2.3887771950297646e-06  1.8047896812963017e-06  1.3039197887146321e-06  7.8769563841877748e-07  0.0000000000000000e+00  6.0000000000000002e-05  5.5092259019981991e-05  5.3819878776900011e-05  5.3399200312802561e-05  5.3227993027689683e-05  5.3111088905914640e-05  5.2976513416660080e-05  5.2788820610888259e-05  5.2522295282036137e-05  5.2153332141305582e-05  5.1659272304438975e-05  5.1019595383544523e-05  5.0217998376183772e-05  4.9244655687339600e-05  4.8098138406330680e-05  4.6786299898651874e-05  4.5323299719962397e-05  4.3700811206559891e-05  4.1666099145477097e-05  3.5469314328934580e-05  2.7419307523389891e-05  2.2551014759451373e-05  1.9197088146602972e-05  1.6727540301170514e-05  1.4844550076743145e-05  1.3372035498584444e-05  1.2194443995756355e-05  1.1239475640635656e-05  1.0491320381292654e-05  1.0065645177367331e-05  1.0473008176624601e-05  1.3512570116967589e-05  1.8476260605340656e-05  1.9273109871090087e-05  1.8438892928421655e-05  1.7020256779855984e-05  1.5395033434029119e-05  1.3706048618163691e-05  1.2022489084528571e-05  1.0389773141176334e-05  8.8432042328936905e-06  7.4106974064080261e-06  6.1126865167228763e-06  4.9617657363718024e-06  3.9627721910774756e-06  3.1132885982251641e-06  2.4039476109119272e-06  1.8164912341118935e-06  1.3128390530323667e-06  7.9445602848444781e-07  0.0000000000000000e+00  6.0000000000000002e-05  5.5352065425232954e-05  5.4084677845650730e-05  5.3665443027977871e-05  5.3494588356102871e-05  5.3377628134359001e-05  5.3242751939286833e-05  5.3054512093729581e-05  5.2787127412361831e-05  5.2416896153206914e-05  5.1921047523337858e-05  5.1278945131614972e-05  5.0474177870862033e-05  4.9496833052387111e-05  4.8345429382810610e-05  4.7027820593335418e-05  4.5558287403605275e-05  4.3929348419177643e-05  4.1882490447916115e-05  3.6143570415899102e-05  2.8515139568408009e-05  2.3516746026732326e-05  2.0039415151899006e-05  1.7470648645791773e-05  1.5509185596057999e-05  1.3974139776020131e-05  1.2745833498143537e-05  1.1748437146612708e-05  1.0962654841316622e-05  1.0499266473747885e-05  1.0855732833277165e-05  1.3731581682387553e-05  1.8597238151404493e-05  1.9386627425743735e-05  1.8542459679034362e-05  1.7114964337796071e-05  1.5481096994487935e-05  1.3783423197342231e-05  1.2091163994227340e-05  1.0449876762692185e-05  8.8950324748238016e-06  7.4547075782174174e-06  6.1494725474106287e-06  4.9920229665420184e-06  3.9872576885053633e-06  3.1327820450341124e-06  2.4192174111438705e-06  1.8282708272031465e-06  1.3218149168176702e-06  8.0120930401683184e-07  0.0000000000000000e+00  6.0000000000000002e-05  5.5606108455321495e-05  5.4348580699840253e-05  5.3932320745528056e-05  5.3762299221032478e-05  5.3645434159086373e-05  5.3510304146038305e-05  5.3321530541293908e-05  5.3053288285946508e-05  5.2681785854427687e-05  5.2184142288213113e-05  5.1539605353978183e-05  5.0731655510352683e-05  4.9750292560411664e-05  4.8593982679825899e-05  4.7270581787075031e-05  4.5794509555335530e-05  4.4159264768833894e-05  4.2104430442096214e-05  3.6770132451896709e-05  2.9550725783996196e-05  2.4467751487682911e-05  2.0882542518358828e-05  1.8221880327793908e-05  1.6185892336268091e-05  1.4590560877058591e-05  1.3312796738312414e-05  1.2273562439419768e-05  1.1450147903767943e-05  1.0948177271446716e-05  1.1250850939417370e-05  1.3972855169089740e-05  1.8731206870161549e-05  1.9504878102478579e-05  1.8647902856728524e-05  1.7210599156069668e-05  1.5567761983412106e-05  1.3861268413452055e-05  1.2160239039486929e-05  1.0510328805659010e-05  8.9471639041022140e-06  7.4989789571720624e-06  6.1864805915441132e-06  5.0224660869462262e-06  4.0118964118899109e-06  3.1523997997885232e-06  2.4345864669501264e-06  1.8401281858448093e-06  1.3308469108034888e-06  8.0795512999367394e-07  0.0000000000000000e+00  6.0000000000000002e-05  5.5854182826777153e-05  5.4611589628683270e-05  5.4199838401354771e-05  5.4031131809997499e-05  5.3914513594032889e-05  5.3779176823068796e-05  5.3589882840265273e-05  5.3320784874410037e-05  5.2948008299584092e-05  5.2448563732653077e-05  5.1801583250074364e-05  5.0990438534151793e-05  5.0005041450514773e-05  4.8843805475288586e-05  4.7514590461264687e-05  4.6031972280639274e-05  4.4390559813380168e-05  4.2331508158379658e-05  3.7355900031356075e-05  3.0525733321924103e-05  2.5401483840234855e-05  2.1724901496890129e-05  1.8980421223679405e-05  1.6874357576262489e-05  1.5221322462157578e-05  1.3895586090853241e-05  1.2815261112320712e-05  1.1954320733494413e-05  1.1413005131749811e-05  1.1659475390131181e-05  1.4235072563835100e-05  1.8878212243609926e-05  1.9627878985126442e-05  1.8755229872601310e-05  1.7307165552621700e-05  1.5655031613018544e-05  1.3939586900927448e-05  1.2229716422240152e-05  1.0571131081258926e-05  8.9995999631389551e-06  7.5435126433921425e-06  6.2237114428341555e-06  5.0530956284207727e-06  4.0366886761645563e-06  3.1721420059671523e-06  2.4500547822209987e-06  1.8520631750779236e-06  1.3399347516004757e-06  8.1469395559124657e-07  0.0000000000000000e+00  6.0000000000000002e-05  5.6096211970647123e-05  5.4873718498371518e-05  5.4468004492869233e-05  5.4301093447488050e-05  5.4184873422693350e-05  5.4049376876950997e-05  5.3859575910356209e-05  5.3589624144422809e-05  5.3215570514732385e-05  5.2714318942167453e-05  5.2064885953695235e-05  5.1250534101105213e-05  5.0261086870201535e-05  4.9094904849961927e-05  4.7759853498886449e-05  4.6270681559862044e-05  4.4623234173322494e-05  4.2563334641063285e-05  3.7906816624947812e-05  3.1442674262732217e-05  2.6315931324678677e-05  2.2565124601040228e-05  1.9745557433686848e-05  1.7574335091094874e-05  1.5866501266182778e-05  1.4494500524437188e-05  1.3373985113620634e-05  1.2475732010062766e-05  1.1894403926793323e-05  1.2082616384511723e-05  1.4517330540818964e-05  1.9038254104530901e-05  1.9755630075895961e-05  1.8864441556629145e-05  1.7404665713820371e-05  1.5742908410283579e-05  1.4018381077935214e-05  1.2299598291599631e-05  1.0632285416073763e-05  9.0523421468111585e-06  7.5883098140660957e-06  6.2611659891777487e-06  5.0839122268385260e-06  4.0616349064654484e-06  3.1920089178456457e-06  2.4656224705622187e-06  1.8640757756583009e-06  1.3490783126496150e-06  8.2142685721614936e-07  0.0000000000000000e+00  6.0000000000000002e-05  5.6332223420573968e-05  5.5134992012143557e-05  5.4736830946238113e-05  5.4572192554678737e-05  5.4456520987764284e-05  5.4320911334929364e-05  5.4130616709432530e-05  5.3859813066194694e-05  5.3484479508970058e-05  5.2981414968903545e-05  5.2329520550702857e-05  5.1511949309748156e-05  5.0518435897626045e-05  4.9347287810487892e-05  4.8006377706080213e-05  4.6510643260243981e-05  4.4857288949674803e-05  4.2799546153173510e-05  3.8427988965088136e-05  3.2305515995988189e-05  2.7209632677200363e-05  2.3402053908186042e-05  2.0516680790331289e-05  1.8285648873206094e-05  1.6526229944192980e-05  1.5109888131825172e-05  1.3950231426194335e-05  1.3014981507130517e-05  1.2393059514428990e-05  1.2521213907268791e-05  1.4819032366123353e-05  1.9211290228282894e-05  1.9888114439004107e-05  1.8975532402099319e-05  1.7503099785485703e-05  1.5831394250778079e-05  1.4097653159154848e-05  1.2369886746864261e-05  1.0693793648822118e-05  9.1053919942749304e-06  7.6333717112383221e-06  6.2988451973390987e-06  5.1149166056723281e-06  4.0867356195585910e-06  3.2120008816074497e-06  2.4812897364331454e-06  1.8761660642821402e-06  1.3582776003115191e-06  8.2815541013669100e-07  0.0000000000000000e+00  6.0000000000000002e-05  5.6562328510640238e-05  5.5395445173155162e-05  5.5006332997559839e-05  5.4844438613286931e-05  5.4729463981705335e-05  5.4593787344866554e-05  5.4403012237676700e-05  5.4131358620474836e-05  5.3754742284019509e-05  5.3249858843800824e-05  5.2595494093656086e-05  5.1774691215086127e-05  5.0777095559936644e-05  4.9600961308379097e-05  4.8254169830018405e-05  4.6751863147241608e-05  4.5092725282167123e-05  4.3039805792929688e-05  3.8923802035697628e-05  3.3118869190008370e-05  2.8081681973399533e-05  2.4234752808605091e-05  2.1293298428667961e-05  1.9008199977827227e-05  1.7200702225596866e-05  1.5742150311412757e-05  1.4544545798989548e-05  1.3572713954100743e-05  1.2909694360770954e-05  1.2976163118210783e-05  1.5139810230909368e-05  1.9397239741133454e-05  2.0025298326226670e-05  1.9088490783435658e-05  1.7602465953169347e-05  1.5920490388211175e-05  1.4177405166811432e-05  1.2440583840135752e-05  1.0755657627700364e-05  9.1587510822194405e-06  7.6786996317453940e-06  6.3367501003328203e-06  5.1461095616427201e-06  4.1119914085606163e-06  3.2321183198122741e-06  2.4970568596440534e-06  1.8883341973233100e-06  1.3675327341189564e-06  8.3488158389894701e-07  0.0000000000000000e+00  6.0000000000000002e-05  5.6786705674916045e-05  5.5655122875120115e-05  5.5276529082667865e-05  5.5117842132061602e-05  5.5003710437809054e-05  5.4868012174858307e-05  5.4676769540934640e-05  5.4404267804316818e-05  5.4026365842147484e-05  5.3519657586635305e-05  5.2862813613891486e-05  5.2038766842447281e-05  5.1037072848412530e-05  4.9855932255692378e-05  4.8503236573746690e-05  4.6994346895057172e-05  4.5329544022501505e-05  4.3283803925477748e-05  3.9398024487218451e-05  3.3887523018380032e-05  2.8931709926164491e-05  2.5062517667140865e-05  2.2075044087132197e-05  1.9741975021814537e-05  1.7890179390956218e-05  1.6391746935706042e-05  1.5157527133611320e-05  1.4149623123337859e-05  1.3445071748465900e-05  1.3448334527497194e-05  1.5479469423545640e-05  1.9595986145356995e-05  2.0167131299057989e-05  1.9203299155897678e-05  1.7702760515028778e-05  1.6010197480904883e-05  1.4257638940419515e-05  1.2511691578665103e-05  1.0817879208240485e-05  9.2124210193172852e-06  7.7242949189254583e-06  6.3748817870333467e-06  5.1774919529041776e-06  4.1374029303684668e-06  3.2523617186244003e-06  2.5129241826128567e-06  1.9005803974532738e-06  1.3768439304049499e-06  8.4160765751104214e-07  0.0000000000000000e+00  6.0000000000000002e-05  5.7005586755626244e-05  5.5914079566557729e-05  5.5547440731537781e-05  5.5392414614700348e-05  5.5279268721456210e-05  5.5143593212501592e-05  5.4951895713366389e-05  5.4678547635819715e-05  5.4299357192711765e-05  5.3790818214325935e-05  5.3131486131508654e-05  5.2304183198924996e-05  5.1298374730961399e-05  5.0112207537974583e-05  4.8753584608535273e-05  4.7238100096381227e-05  4.5567745501037726e-05  4.3531257748160604e-05  3.9853902441124730e-05  3.4616188448500791e-05  2.9759844586621998e-05  2.5884887639853389e-05  2.2861689855342633e-05  2.0487055523883243e-05  1.8594997529773883e-05  1.7059202144544061e-05  1.5789832313613542e-05  1.4746456123317107e-05  1.3999999915331713e-05  1.3938590323304527e-05  1.5837948204969668e-05  1.9807379852426415e-05  2.0313546359573564e-05  1.9319934244104684e-05  1.7803977949974923e-05  1.6100515616179061e-05  1.4338356145605964e-05  1.2583211927023927e-05  1.0880460251611134e-05  9.2664034416673967e-06  7.7701589557909145e-06  6.4132413936180651e-06  5.2090646893203131e-06  4.1629708953167266e-06  3.2727316173091474e-06  2.5288920998882084e-06  1.9129049426266823e-06  1.3862114886690056e-06  8.4833615104556068e-07  0.0000000000000000e+00  6.0000000000000002e-05  5.7219245823250612e-05  5.6172378950347329e-05  5.5819092464241215e-05  5.5668168528245663e-05  5.5556147521303537e-05  5.5420537963807393e-05  5.5228397899501434e-05  5.4954205158018655e-05  5.4573723357575574e-05  5.4063347747809844e-05  5.3401518663631140e-05  5.2570947282838277e-05  5.1561008162447013e-05  5.0369794024966571e-05  4.9005220584189297e-05  4.7483128271409390e-05  4.5807329368606191e-05  4.3781910237229672e-05  4.0294241404490863e-05  3.5309365497751927e-05  3.0566659163986251e-05  2.6701651783409746e-05  2.3653157665145840e-05  2.1243627630249530e-05  1.9315575276459469e-05  1.7745110562909407e-05  1.6442181361584949e-05  1.5364017892708505e-05  1.4575336302469425e-05  1.4447797860428053e-05  1.6215288999347439e-05  2.0031240174831258e-05  2.0464460099866259e-05  1.9438367225068797e-05  1.7906110983229850e-05  1.6191444333428620e-05  1.4419558282306407e-05  1.2655146809175595e-05  1.0943402623299699e-05  9.3207000090616707e-06  7.8162931594084591e-06  6.4518300965205997e-06  5.2408287244576734e-06  4.1886960586663118e-06  3.2932285995928961e-06  2.5449610495335472e-06  1.9253081570076668e-06  1.3956357801653728e-06  8.5506977086589532e-07  0.0000000000000000e+00  6.0000000000000002e-05  5.7427990092673616e-05  5.6430093692236695e-05  5.6091511686124795e-05  5.5945117271217863e-05  5.5834355840207873e-05  5.5698854051755336e-05  5.5506283295783439e-05  5.5231247442069229e-05  5.4849471375588196e-05  5.4337253217739527e-05  5.3672918231248778e-05  5.2839066091562250e-05  5.1824980093233213e-05  5.0628698579465946e-05  4.9258151137687464e-05  4.7729436876226029e-05  4.6048294498092881e-05  4.4035528666696304e-05  4.0721476941725756e-05  3.5971283700203783e-05  3.1353114594208156e-05  2.7512853168032956e-05  2.4449530153369764e-05  2.2011991965089859e-05  2.0052421850919641e-05  1.8450143830097729e-05  1.7115362860464689e-05  1.6003175895054387e-05  1.5171992000002117e-05  1.4976841063078641e-05  1.6611617758292045e-05  2.0267356764464678e-05  2.0619772878121379e-05  1.9558563910365060e-05  1.8009150650987297e-05  1.6282982646513490e-05  1.4501246692569935e-05  1.2727498110504814e-05  1.1006708192122505e-05  9.3753124019353406e-06  7.8626989762750788e-06  6.4906491066272688e-06  5.2727850489928485e-06  4.2145792135981867e-06  3.3138532865536664e-06  2.5611315060385574e-06  1.9377904034874157e-06  1.4051172382951878e-06  8.6181136614580380e-07  0.0000000000000000e+00  6.0000000000000002e-05  5.7632152587214917e-05  5.6687305120844180e-05  5.6364728580457607e-05  5.6223275140911025e-05  5.6113902985737456e-05  5.5978549214491626e-05  5.5785559151675050e-05  5.5509681589844467e-05  5.5126608306295642e-05  5.4612541669210792e-05  5.3945691864893839e-05  5.3108546628019203e-05  5.2090297476262947e-05  5.0888928064678206e-05  4.9512382900453290e-05  4.7977031310663499e-05  4.6290638933032911e-05  4.4291902844039141e-05  4.1137735188514169e-05  3.6605885210265291e-05  3.2120502756226920e-05  2.8318790118370144e-05  2.5251060722554232e-05  2.2792573455390566e-05  2.0806145300995465e-05  1.9175057373823451e-05  1.7810239602494967e-05  1.6664865014250873e-05  1.5790936430517086e-05  1.5526630310821928e-05  1.7027129246697937e-05  2.0515490508195526e-05  2.0779369027997696e-05  1.9680484931183209e-05  1.8113086365504935e-05  1.6375129065950054e-05  1.4583422568157971e-05  1.2800267679851198e-05  1.1070378829518467e-05  9.4302423188849736e-06  7.9093778785152015e-06  6.5296996644963986e-06  5.3049346852812287e-06  4.2406211854431835e-06  3.3346063307680074e-06  2.5774039744835723e-06  1.9503520775055818e-06  1.4146563504633160e-06  8.6856389473747573e-07  0.0000000000000000e+00  6.0000000000000002e-05  5.7832086259098142e-05  5.6944102908221789e-05  5.6638775997231712e-05  5.6502657299416293e-05  5.6394798560158994e-05  5.6259631303175315e-05  5.6066232770382838e-05  5.5789514736043561e-05  5.5405141233016786e-05  5.4889220165693967e-05  5.4219846609359220e-05  5.3379395906069936e-05  5.2356967272934815e-05  5.1150489350328274e-05  4.9767922504509217e-05  4.8225916925749778e-05  4.6534359872710609e-05  4.4550843170880025e-05  4.1544884450228293e-05  3.7216832196366035e-05  3.2870394268751031e-05  2.9120014998504079e-05  2.6058182749469810e-05  2.3585931044643768e-05  2.1577460883587720e-05  1.9920697388251194e-05  1.8527754443345749e-05  1.7350092650129313e-05  1.6433202286390255e-05  1.6098111242430148e-05  1.7462076634595127e-05  2.0775373904102636e-05  2.0943117106952058e-05  1.9804085929261054e-05  1.8217905981658379e-05  1.6467881621284857e-05  1.4666086958083107e-05  1.2873457331581683e-05  1.1134416409087986e-05  9.4854914746576239e-06  7.9563313607545189e-06  6.5689830364185334e-06  5.3372786828797183e-06  4.2668228269262034e-06  3.3554884114882496e-06  2.5937789857308882e-06  1.9629936019389501e-06  1.4242536511242868e-06  8.7533039676452860e-07  0.0000000000000000e+00  6.0000000000000002e-05  5.8028159322408958e-05  5.7200584724753772e-05  5.6913689337150447e-05  5.6783279738051362e-05  5.6677052449820880e-05  5.6542108279481127e-05  5.6348311509253014e-05  5.6070754049894102e-05  5.5685077265397340e-05  5.5167295792310800e-05  5.4495389527630751e-05  5.3651620955003405e-05  5.262499645799424