<?xml version="1.0"?>
<VTKFile type="UnstructuredGrid"  version="0.1"  >
<UnstructuredGrid>
<Piece  NumberOfPoints="2601" NumberOfCells="5000">
<Points>
<DataArray  type="Float64"  NumberOfComponents="3"  format="ascii">-1 0 0  -0.96 0 0  -0.92 0 0  -0.88 0 0  -0.84 0 0  -0.8 0 0  -0.76 0 0  -0.72 0 0  -0.6799999999999999 0 0  -0.64 0 0  -0.6 0 0  -0.5600000000000001 0 0  -0.52 0 0  -0.48 0 0  -0.4399999999999999 0 0  -0.4 0 0  -0.36 0 0  -0.32 0 0  -0.28 0 0  -0.24 0 0  -0.2 0 0  -0.16 0 0  -0.12 0 0  -0.07999999999999996 0 0  -0.04000000000000004 0 0  0 0 0  0.04000000000000004 0 0  0.08000000000000007 0 0  0.1200000000000001 0 0  0.1599999999999999 0 0  0.2 0 0  0.24 0 0  0.28 0 0  0.3200000000000001 0 0  0.3600000000000001 0 0  0.3999999999999999 0 0  0.4399999999999999 0 0  0.48 0 0  0.52 0 0  0.5600000000000001 0 0  0.6000000000000001 0 0  0.6399999999999999 0 0  0.6799999999999999 0 0  0.72 0 0  0.76 0 0  0.8 0 0  0.8400000000000001 0 0  0.8799999999999999 0 0  0.9199999999999999 0 0  0.96 0 0  1 0 0  -1 0.016 0  -0.96 0.016 0  -0.92 0.016 0  -0.88 0.016 0  -0.84 0.016 0  -0.8 0.016 0  -0.76 0.016 0  -0.72 0.016 0  -0.6799999999999999 0.016 0  -0.64 0.016 0  -0.6 0.016 0  -0.5600000000000001 0.016 0  -0.52 0.016 0  -0.48 0.016 0  -0.4399999999999999 0.016 0  -0.4 0.016 0  -0.36 0.016 0  -0.32 0.016 0  -0.28 0.016 0  -0.24 0.016 0  -0.2 0.016 0  -0.16 0.016 0  -0.12 0.016 0  -0.07999999999999996 0.016 0  -0.04000000000000004 0.016 0  0 0.016 0  0.04000000000000004 0.016 0  0.08000000000000007 0.016 0  0.1200000000000001 0.016 0  0.1599999999999999 0.016 0  0.2 0.016 0  0.24 0.016 0  0.28 0.016 0  0.3200000000000001 0.016 0  0.3600000000000001 0.016 0  0.3999999999999999 0.016 0  0.4399999999999999 0.016 0  0.48 0.016 0  0.52 0.016 0  0.5600000000000001 0.016 0  0.6000000000000001 0.016 0  0.6399999999999999 0.016 0  0.6799999999999999 0.016 0  0.72 0.016 0  0.76 0.016 0  0.8 0.016 0  0.8400000000000001 0.016 0  0.8799999999999999 0.016 0  0.9199999999999999 0.016 0  0.96 0.016 0  1 0.016 0  -1 0.032 0  -0.96 0.032 0  -0.92 0.032 0  -0.88 0.032 0  -0.84 0.032 0  -0.8 0.032 0  -0.76 0.032 0  -0.72 0.032 0  -0.6799999999999999 0.032 0  -0.64 0.032 0  -0.6 0.032 0  -0.5600000000000001 0.032 0  -0.52 0.032 0  -0.48 0.032 0  -0.4399999999999999 0.032 0  -0.4 0.032 0  -0.36 0.032 0  -0.32 0.032 0  -0.28 0.032 0  -0.24 0.032 0  -0.2 0.032 0  -0.16 0.032 0  -0.12 0.032 0  -0.07999999999999996 0.032 0  -0.04000000000000004 0.032 0  0 0.032 0  0.04000000000000004 0.032 0  0.08000000000000007 0.032 0  0.1200000000000001 0.032 0  0.1599999999999999 0.032 0  0.2 0.032 0  0.24 0.032 0  0.28 0.032 0  0.3200000000000001 0.032 0  0.3600000000000001 0.032 0  0.3999999999999999 0.032 0  0.4399999999999999 0.032 0  0.48 0.032 0  0.52 0.032 0  0.5600000000000001 0.032 0  0.6000000000000001 0.032 0  0.6399999999999999 0.032 0  0.6799999999999999 0.032 0  0.72 0.032 0  0.76 0.032 0  0.8 0.032 0  0.8400000000000001 0.032 0  0.8799999999999999 0.032 0  0.9199999999999999 0.032 0  0.96 0.032 0  1 0.032 0  -1 0.04800000000000001 0  -0.96 0.04800000000000001 0  -0.92 0.04800000000000001 0  -0.88 0.04800000000000001 0  -0.84 0.04800000000000001 0  -0.8 0.04800000000000001 0  -0.76 0.04800000000000001 0  -0.72 0.04800000000000001 0  -0.6799999999999999 0.04800000000000001 0  -0.64 0.04800000000000001 0  -0.6 0.04800000000000001 0  -0.5600000000000001 0.04800000000000001 0  -0.52 0.04800000000000001 0  -0.48 0.04800000000000001 0  -0.4399999999999999 0.04800000000000001 0  -0.4 0.04800000000000001 0  -0.36 0.04800000000000001 0  -0.32 0.04800000000000001 0  -0.28 0.04800000000000001 0  -0.24 0.04800000000000001 0  -0.2 0.04800000000000001 0  -0.16 0.04800000000000001 0  -0.12 0.04800000000000001 0  -0.07999999999999996 0.04800000000000001 0  -0.04000000000000004 0.04800000000000001 0  0 0.04800000000000001 0  0.04000000000000004 0.04800000000000001 0  0.08000000000000007 0.04800000000000001 0  0.1200000000000001 0.04800000000000001 0  0.1599999999999999 0.04800000000000001 0  0.2 0.04800000000000001 0  0.24 0.04800000000000001 0  0.28 0.04800000000000001 0  0.3200000000000001 0.04800000000000001 0  0.3600000000000001 0.04800000000000001 0  0.3999999999999999 0.04800000000000001 0  0.4399999999999999 0.04800000000000001 0  0.48 0.04800000000000001 0  0.52 0.04800000000000001 0  0.5600000000000001 0.04800000000000001 0  0.6000000000000001 0.04800000000000001 0  0.6399999999999999 0.04800000000000001 0  0.6799999999999999 0.04800000000000001 0  0.72 0.04800000000000001 0  0.76 0.04800000000000001 0  0.8 0.04800000000000001 0  0.8400000000000001 0.04800000000000001 0  0.8799999999999999 0.04800000000000001 0  0.9199999999999999 0.04800000000000001 0  0.96 0.04800000000000001 0  1 0.04800000000000001 0  -1 0.064 0  -0.96 0.064 0  -0.92 0.064 0  -0.88 0.064 0  -0.84 0.064 0  -0.8 0.064 0  -0.76 0.064 0  -0.72 0.064 0  -0.6799999999999999 0.064 0  -0.64 0.064 0  -0.6 0.064 0  -0.5600000000000001 0.064 0  -0.52 0.064 0  -0.48 0.064 0  -0.4399999999999999 0.064 0  -0.4 0.064 0  -0.36 0.064 0  -0.32 0.064 0  -0.28 0.064 0  -0.24 0.064 0  -0.2 0.064 0  -0.16 0.064 0  -0.12 0.064 0  -0.07999999999999996 0.064 0  -0.04000000000000004 0.064 0  0 0.064 0  0.04000000000000004 0.064 0  0.08000000000000007 0.064 0  0.1200000000000001 0.064 0  0.1599999999999999 0.064 0  0.2 0.064 0  0.24 0.064 0  0.28 0.064 0  0.3200000000000001 0.064 0  0.3600000000000001 0.064 0  0.3999999999999999 0.064 0  0.4399999999999999 0.064 0  0.48 0.064 0  0.52 0.064 0  0.5600000000000001 0.064 0  0.6000000000000001 0.064 0  0.6399999999999999 0.064 0  0.6799999999999999 0.064 0  0.72 0.064 0  0.76 0.064 0  0.8 0.064 0  0.8400000000000001 0.064 0  0.8799999999999999 0.064 0  0.9199999999999999 0.064 0  0.96 0.064 0  1 0.064 0  -1 0.08 0  -0.96 0.08 0  -0.92 0.08 0  -0.88 0.08 0  -0.84 0.08 0  -0.8 0.08 0  -0.76 0.08 0  -0.72 0.08 0  -0.6799999999999999 0.08 0  -0.64 0.08 0  -0.6 0.08 0  -0.5600000000000001 0.08 0  -0.52 0.08 0  -0.48 0.08 0  -0.4399999999999999 0.08 0  -0.4 0.08 0  -0.36 0.08 0  -0.32 0.08 0  -0.28 0.08 0  -0.24 0.08 0  -0.2 0.08 0  -0.16 0.08 0  -0.12 0.08 0  -0.07999999999999996 0.08 0  -0.04000000000000004 0.08 0  0 0.08 0  0.04000000000000004 0.08 0  0.08000000000000007 0.08 0  0.1200000000000001 0.08 0  0.1599999999999999 0.08 0  0.2 0.08 0  0.24 0.08 0  0.28 0.08 0  0.3200000000000001 0.08 0  0.3600000000000001 0.08 0  0.3999999999999999 0.08 0  0.4399999999999999 0.08 0  0.48 0.08 0  0.52 0.08 0  0.5600000000000001 0.08 0  0.6000000000000001 0.08 0  0.6399999999999999 0.08 0  0.6799999999999999 0.08 0  0.72 0.08 0  0.76 0.08 0  0.8 0.08 0  0.8400000000000001 0.08 0  0.8799999999999999 0.08 0  0.9199999999999999 0.08 0  0.96 0.08 0  1 0.08 0  -1 0.09600000000000002 0  -0.96 0.09600000000000002 0  -0.92 0.09600000000000002 0  -0.88 0.09600000000000002 0  -0.84 0.09600000000000002 0  -0.8 0.09600000000000002 0  -0.76 0.09600000000000002 0  -0.72 0.09600000000000002 0  -0.6799999999999999 0.09600000000000002 0  -0.64 0.09600000000000002 0  -0.6 0.09600000000000002 0  -0.5600000000000001 0.09600000000000002 0  -0.52 0.09600000000000002 0  -0.48 0.09600000000000002 0  -0.4399999999999999 0.09600000000000002 0  -0.4 0.09600000000000002 0  -0.36 0.09600000000000002 0  -0.32 0.09600000000000002 0  -0.28 0.09600000000000002 0  -0.24 0.09600000000000002 0  -0.2 0.09600000000000002 0  -0.16 0.09600000000000002 0  -0.12 0.09600000000000002 0  -0.07999999999999996 0.09600000000000002 0  -0.04000000000000004 0.09600000000000002 0  0 0.09600000000000002 0  0.04000000000000004 0.09600000000000002 0  0.08000000000000007 0.09600000000000002 0  0.1200000000000001 0.09600000000000002 0  0.1599999999999999 0.09600000000000002 0  0.2 0.09600000000000002 0  0.24 0.09600000000000002 0  0.28 0.09600000000000002 0  0.3200000000000001 0.09600000000000002 0  0.3600000000000001 0.09600000000000002 0  0.3999999999999999 0.09600000000000002 0  0.4399999999999999 0.09600000000000002 0  0.48 0.09600000000000002 0  0.52 0.09600000000000002 0  0.5600000000000001 0.09600000000000002 0  0.6000000000000001 0.09600000000000002 0  0.6399999999999999 0.09600000000000002 0  0.6799999999999999 0.09600000000000002 0  0.72 0.09600000000000002 0  0.76 0.09600000000000002 0  0.8 0.09600000000000002 0  0.8400000000000001 0.09600000000000002 0  0.8799999999999999 0.09600000000000002 0  0.9199999999999999 0.09600000000000002 0  0.96 0.09600000000000002 0  1 0.09600000000000002 0  -1 0.112 0  -0.96 0.112 0  -0.92 0.112 0  -0.88 0.112 0  -0.84 0.112 0  -0.8 0.112 0  -0.76 0.112 0  -0.72 0.112 0  -0.6799999999999999 0.112 0  -0.64 0.112 0  -0.6 0.112 0  -0.5600000000000001 0.112 0  -0.52 0.112 0  -0.48 0.112 0  -0.4399999999999999 0.112 0  -0.4 0.112 0  -0.36 0.112 0  -0.32 0.112 0  -0.28 0.112 0  -0.24 0.112 0  -0.2 0.112 0  -0.16 0.112 0  -0.12 0.112 0  -0.07999999999999996 0.112 0  -0.04000000000000004 0.112 0  0 0.112 0  0.04000000000000004 0.112 0  0.08000000000000007 0.112 0  0.1200000000000001 0.112 0  0.1599999999999999 0.112 0  0.2 0.112 0  0.24 0.112 0  0.28 0.112 0  0.3200000000000001 0.112 0  0.3600000000000001 0.112 0  0.3999999999999999 0.112 0  0.4399999999999999 0.112 0  0.48 0.112 0  0.52 0.112 0  0.5600000000000001 0.112 0  0.6000000000000001 0.112 0  0.6399999999999999 0.112 0  0.6799999999999999 0.112 0  0.72 0.112 0  0.76 0.112 0  0.8 0.112 0  0.8400000000000001 0.112 0  0.8799999999999999 0.112 0  0.9199999999999999 0.112 0  0.96 0.112 0  1 0.112 0  -1 0.128 0  -0.96 0.128 0  -0.92 0.128 0  -0.88 0.128 0  -0.84 0.128 0  -0.8 0.128 0  -0.76 0.128 0  -0.72 0.128 0  -0.6799999999999999 0.128 0  -0.64 0.128 0  -0.6 0.128 0  -0.5600000000000001 0.128 0  -0.52 0.128 0  -0.48 0.128 0  -0.4399999999999999 0.128 0  -0.4 0.128 0  -0.36 0.128 0  -0.32 0.128 0  -0.28 0.128 0  -0.24 0.128 0  -0.2 0.128 0  -0.16 0.128 0  -0.12 0.128 0  -0.07999999999999996 0.128 0  -0.04000000000000004 0.128 0  0 0.128 0  0.04000000000000004 0.128 0  0.08000000000000007 0.128 0  0.1200000000000001 0.128 0  0.1599
[...]
<PointData  Scalars="f_100"> 
<DataArray  type="Float64"  Name="f_100"  format="ascii">6.0000000000000002e-05  5.4283435459509829e-05  5.3021854277242797e-05  5.2607825157040867e-05  5.2441772859644279e-05  5.2331383313533106e-05  5.2206298202419702e-05  5.2032352421414411e-05  5.1785001395554136e-05  5.1441667386783259e-05  5.0980442941506718e-05  5.0381118979210820e-05  4.9627114426857432e-05  4.8707640190668076e-05  4.7619605052931252e-05  4.6368575796735731e-05  4.4965858145256251e-05  4.3398519906006335e-05  4.1453378080594594e-05  3.3425450760230451e-05  2.4148842229522764e-05  1.9833137372660063e-05  1.6895078484575908e-05  1.4732152000497620e-05  1.3081082410199218e-05  1.1788594576047324e-05  1.0755219830756652e-05  9.9210697928429090e-06  9.2816394085975547e-06  8.9674203915697769e-06  9.5229100656237223e-06  1.3216382728680591e-05  1.8491176212043099e-05  1.9309523842065849e-05  1.8519281732719162e-05  1.7144653017615321e-05  1.5559999810046726e-05  1.3905591291764961e-05  1.2248673417207387e-05  1.0633468404348736e-05  9.0948933465312745e-06  7.6612519080699940e-06  6.3540190310682715e-06  5.1872979026914801e-06  4.1676838275737172e-06  3.2945275657708397e-06  2.5599403243411010e-06  1.9462842987505621e-06  1.4136787195004160e-06  8.5474674347360428e-07  0.0000000000000000e+00  6.0000000000000002e-05  5.4557527425096828e-05  5.3289222074748243e-05  5.2872159027277239e-05  5.2705059433450794e-05  5.2594185703453054e-05  5.2468687948196077e-05  5.2294196082066644e-05  5.2046039389465013e-05  5.1701528744424504e-05  5.1238643581925477e-05  5.0637060717153442e-05  4.9880091939925213e-05  4.8956859234130932e-05  4.7864212963887513e-05  4.6607704792729477e-05  4.5198693190614850e-05  4.3624621429125648e-05  4.1652263960685307e-05  3.4303937359361321e-05  2.5362255559330302e-05  2.0831864277459636e-05  1.7733228007846257e-05  1.5453498235388272e-05  1.3714412843471539e-05  1.2353913583594763e-05  1.1266762077098902e-05  1.0388855961062578e-05  9.7121902881999407e-06  9.3634928112390163e-06  9.8814283653216576e-06  1.3355895571609475e-05  1.8575166848844319e-05  1.9410718297955440e-05  1.8619118490493224e-05  1.7238552475710573e-05  1.5646325255158848e-05  1.3983697217098891e-05  1.2318335438273539e-05  1.0694716346990081e-05  9.1479577699615890e-06  7.7065354729007041e-06  6.3920673890385251e-06  5.2187651904178482e-06  4.1932944690958463e-06  3.3150380998933668e-06  2.5761056795095150e-06  1.9588345304482773e-06  1.4233170334331488e-06  8.6220865911541951e-07  0.0000000000000000e+00  6.0000000000000002e-05  5.4827573872663591e-05  5.3555769114934824e-05  5.3137136186404069e-05  5.2969450365848375e-05  5.2858237506650666e-05  5.2732371945815120e-05  5.2557346538802047e-05  5.2308385656927340e-05  5.1962695208190876e-05  5.1498143218960604e-05  5.0894292591596403e-05  5.0134347701981591e-05  4.9207341251953458e-05  4.8110065101644424e-05  4.6848057847922967e-05  4.5432750247588360e-05  4.3852128624274764e-05  4.1858062933194712e-05  3.5106633572699573e-05  2.6565838697671023e-05  2.1828294927082890e-05  1.8578392987254345e-05  1.6186268274675919e-05  1.4361394112622744e-05  1.2934023452961903e-05  1.1793607362577946e-05  1.0872011960587336e-05  1.0157697640585595e-05  9.7731704376145572e-06  1.0247951395749517e-05  1.3526301035780382e-05  1.8671861393760325e-05  1.9516547045114761e-05  1.8720791285383205e-05  1.7333366442585428e-05  1.5733249162446741e-05  1.4062274991101791e-05  1.2388401220155985e-05  1.0756318096345713e-05  9.2013321442372480e-06  7.7520880383786058e-06  6.4303462210745609e-06  5.2504271296359297e-06  4.2190670567412164e-06  3.3356813396748632e-06  2.5923781972743023e-06  1.9714699673315817e-06  1.4330183551053057e-06  8.6966596527924782e-07  0.0000000000000000e+00  6.0000000000000002e-05  5.5092778918437745e-05  5.3821454730743279e-05  5.3402749825966415e-05  5.3234948111205884e-05  5.3123544136499462e-05  5.2997356606553465e-05  5.2821810598353951e-05  5.2572047224569332e-05  5.2225173978632027e-05  5.1758949213073995e-05  5.1152822106632425e-05  5.0389889328951669e-05  4.9459093919016107e-05  4.8357169119318916e-05  4.7089642429930057e-05  4.5668035900973821e-05  4.4081032394392765e-05  4.2070337374100325e-05  3.5843935231025898e-05  2.7728926587869464e-05  2.2816923327773664e-05  1.9428191684358491e-05  1.6929235695498837e-05  1.5021442378659174e-05  1.3528742521106924e-05  1.2335841609880915e-05  1.1370812302729993e-05  1.0618588948792156e-05  1.0197075560341081e-05  1.0624234767353892e-05  1.3723823187984197e-05  1.8781461737867625e-05  1.9627080493057854e-05  1.8824329503671352e-05  1.7429106500384960e-05  1.5820777174986903e-05  1.4141328104719328e-05  1.2458873261518324e-05  1.0818275511634727e-05  9.2550178092965573e-06  7.7979104896695971e-06  6.4688560174856303e-06  5.2822838818128337e-06  4.2450014924618387e-06  3.3564569909289266e-06  2.6087574250464584e-06  1.9841899636750002e-06  1.4427816903826529e-06  8.7711593831797145e-07  0.0000000000000000e+00  6.0000000000000002e-05  5.5352584387646599e-05  5.4086254478141993e-05  5.3668997263924437e-05  5.3501556429416338e-05  5.3390111420461245e-05  5.3263648463039696e-05  5.3087595081718767e-05  5.2837031081803705e-05  5.2488972182815733e-05  5.2021068818697901e-05  5.1412656629680135e-05  5.0646724272973623e-05  4.9712124725683633e-05  4.8605532474389437e-05  4.7332465813837420e-05  4.5904556571486279e-05  4.4311327644002163e-05  4.2288646771744992e-05  3.6525047752047278e-05  2.8836716642078460e-05  2.3793807825929543e-05  2.0280592314144691e-05  1.7681349403037819e-05  1.5694089423799270e-05  1.4137975600945946e-05  1.2893619009345519e-05  1.1885584305056393e-05  1.1095323443005211e-05  1.0635817237374191e-05  1.1011755828432573e-05  1.3945768741647002e-05  1.8904116007045916e-05  1.9742371040596886e-05  1.8929754854434433e-05  1.7525781684520487e-05  1.5908914092196248e-05  1.4220859766697873e-05  1.2529753984121299e-05  1.0880590470299179e-05  9.3090161822991566e-06  7.8440038327057268e-06  6.5075974221778502e-06  5.3143357847609612e-06  4.2710978675607346e-06  3.3773649537342055e-06  2.6252431064968600e-06  1.9969940845890443e-06  1.4526063249910992e-06  8.8455718038584009e-07  0.0000000000000000e+00  6.0000000000000002e-05  5.5606626516626708e-05  5.4350158022889966e-05  5.3935879717980114e-05  5.3769280319510795e-05  5.3657945582949558e-05  5.3531254169607371e-05  5.3354706832595449e-05  5.3103344194928713e-05  5.2754096893747593e-05  5.2284509209064450e-05  5.1673803421631501e-05  5.0904859857322360e-05  4.9966441016385272e-05  4.8855162469041529e-05  4.7576535120060330e-05  4.6142318527931482e-05  4.4543012070861817e-05  4.2512559336231149e-05  3.7158011344713843e-05  2.9883629170385548e-05  2.4755803110853681e-05  2.1133802474583182e-05  1.8441681738451016e-05  1.6378949328724326e-05  1.4761691303108502e-05  1.3467146884514744e-05  1.2416699728274123e-05  1.1588392877149828e-05  1.1090011163184189e-05  1.1411788905636533e-05  1.4190229989947517e-05  1.9039919795925652e-05  1.9862453390301215e-05  1.9037081768950508e-05  1.7623398637795314e-05  1.5997663928502629e-05  1.4300872927122432e-05  1.2601045739919893e-05  1.0943264864308380e-05  9.3633287451929246e-06  7.8903691743809955e-06  6.5465712069405937e-06  5.3465833226658552e-06  4.2973564301548150e-06  3.3984052887735732e-06  2.6418351473402828e-06  2.0098820694151873e-06  1.4624917790239993e-06  8.9198936410434160e-07  0.0000000000000000e+00  6.0000000000000002e-05  5.5854700022391566e-05  5.4613167652900908e-05  5.4203402121532391e-05  5.4038125964711670e-05  5.3927053231152166e-05  5.3800180502591721e-05  5.3623152724365264e-05  5.3370993518778836e-05  5.3020555146404233e-05  5.2549277496692740e-05  5.1936269661713673e-05  5.1164303305196558e-05  5.0222050021402637e-05  4.9106066283406749e-05  4.7821857345611702e-05  4.6381327899914105e-05  4.4776085201731215e-05  4.2741660102589752e-05  3.7749788308336313e-05  3.0869329643048141e-05  2.5700335003992074e-05  2.1986236010071067e-05  1.9209409140907648e-05  1.7075705498618616e-05  1.5399913216403467e-05  1.4056680095451840e-05  1.2964572369364889e-05  1.2098323868383450e-05  1.1560291803690412e-05  1.1825461526672605e-05  1.4455871987207690e-05  1.9188918957847159e-05  1.9987344783947168e-05  1.9146317734751771e-05  1.7721961737803459e-05  1.6087029961756526e-05  1.4381370296794380e-05  1.2672750816869606e-05  1.1006300597070563e-05  9.4179570344356494e-06  7.9370077062150017e-06  6.5857782502597064e-06  5.3790271014101499e-06  4.3237775584040357e-06  3.4195781896542684e-06  2.6585335872132177e-06  2.0228538016370880e-06  1.4724377696900839e-06  8.9941302253431382e-07  0.0000000000000000e+00  6.0000000000000002e-05  5.6096728335879603e-05  5.4875297233213627e-05  5.4471572969891463e-05  5.4308100685943743e-05  5.4197441342989427e-05  5.4070434360483903e-05  5.3892939665838634e-05  5.3639986006346963e-05  5.3288353950973384e-05  5.2815380750298045e-05  5.2200062467997946e-05  5.1425061763453980e-05  5.0478958883068169e-05  4.9358251002955458e-05  4.8068439389952700e-05  4.6621590690440354e-05  4.5010547633490928e-05  4.2975556289904618e-05  3.8306376816564980e-05  3.1796356808442694e-05  2.6625370407800711e-05  2.2836510172522056e-05  1.9983809377650078e-05  1.7784108598220173e-05  1.6052718639861308e-05  1.4662520674457064e-05  1.3529658919443844e-05  1.2625681037906769e-05  1.2047320302561272e-05  1.2253797086968926e-05  1.4741779921212072e-05  1.9351113097806187e-05  2.0117045181786945e-05  1.9257463579747556e-05  1.7821473204054176e-05  1.6177014773769167e-05  1.4462354363371352e-05  1.2744871443736181e-05  1.1069699580872358e-05  9.4729026325052185e-06  7.9839206908801005e-06  6.6252195198619787e-06  5.4116678282584509e-06  4.3503617384852387e-06  3.4408839601462913e-06  2.6753385765596505e-06  2.0359092841436924e-06  1.4824441807325191e-06  9.0682937686922117e-07  0.0000000000000000e+00  6.0000000000000002e-05  5.6332738990143942e-05  5.5136571466027164e-05  5.4740404187450607e-05  5.4579212901417836e-05  5.4469117256550813e-05  5.4342022763878906e-05  5.4164074605957248e-05  5.3910328616725842e-05  5.3557500303790112e-05  5.3082826008753330e-05  5.2465188914324146e-05  5.1687142322187972e-05  5.0737174677363779e-05  4.9611723641080485e-05  4.8316288076388417e-05  4.6863112788023619e-05  4.5246400445568720e-05  4.3213880545494912e-05  3.8832931116902666e-05  3.2668719207054697e-05  2.7529432538931501e-05  2.3683454102470067e-05  2.0764267176126471e-05  1.8503980352459798e-05  1.6720241476202934e-05  1.5285020381487744e-05  1.4112461655790734e-05  1.3171070603379320e-05  1.2551790185494047e-05  1.2697747714412857e-05  1.5047349545328180e-05  1.9526459219842622e-05  2.0251537406167195e-05  1.9370513719102816e-05  1.7921933190035252e-05  1.6267620284901668e-05  1.4543827405014681e-05  1.2817409794145270e-05  1.1133463734777504e-05  9.5281671608946684e-06  8.0311094510930607e-06  6.6648960583349348e-06  5.4445062951329170e-06  4.3771095464698073e-06  3.4623229954649656e-06  2.6922503576321973e-06  2.0490486188874535e-06  1.4925110372497288e-06  9.1424019551974300e-07  0.0000000000000000e+00  6.0000000000000002e-05  5.6562843318289500e-05  5.5397025353542425e-05  5.5009911008801675e-05  5.4851472090382351e-05  5.4742088660485751e-05  5.4614952855169858e-05  5.4436564537609285e-05  5.4182028321656697e-05  5.3828001196372415e-05  5.3351620292622088e-05  5.2731656044273343e-05  5.1950552030880936e-05  5.0996704431734797e-05  4.9866491157725724e-05  4.8565410169802718e-05  4.7105899978082798e-05  4.5483644754043400e-05  4.3456292584243494e-05  3.9333877387596053e-05  3.3491075056882091e-05  2.8411605884932384e-05  2.4526120758008043e-05  2.1550283939091682e-05  1.9235220493886124e-05  1.7402677456529216e-05  1.5924584933971257e-05  1.4713532207354999e-05  1.3735144269521839e-05  1.3074432013927557e-05  1.3158219971388498e-05  1.5372208461008402e-05  1.9714875187383442e-05  2.0390787267192327e-05  1.9485456375298576e-05  1.8023339864417876e-05  1.6358847784255621e-05  1.4625791502146319e-05  1.2890367990061969e-05  1.1197594982925724e-05  9.5837522743403886e-06  8.0785753604591270e-06  6.7048089712811601e-06  5.4775433648450931e-06  4.4040216334130409e-06  3.4838957668785979e-06  2.7092692488747600e-06  2.0622719901514279e-06  1.5026384848915463e-06  9.2164767930805651e-07  0.0000000000000000e+00  6.0000000000000002e-05  5.6787219753096894e-05  5.5656703788578973e-05  5.5280111868488037e-05  5.5124888759523844e-05  5.5016363584932869e-05  5.4889231897955085e-05  5.4710416500688948e-05  5.4455092110922378e-05  5.4099863622889197e-05  5.3621770613690624e-05  5.2999470882710521e-05  5.2215297911740437e-05  5.1257555139790176e-05  5.0122560474762229e-05  4.8815812391387193e-05  4.7349957953550493e-05  4.5722281381885416e-05  4.3702479630624594e-05  3.9813019995238849e-05  3.4268262865391791e-05  2.9271517340703854e-05  2.5363798735433667e-05  2.2341489196820292e-05  1.9977815375686988e-05  1.8100290701315206e-05  1.6581679237482455e-05  1.5333475988433751e-05  1.4318603354141946e-05  1.3616017628070932e-05  1.3636095286088843e-05  1.5716159540095321e-05  1.9916242794314185e-05  2.0534743685258351e-05  1.9602273779936052e-05  1.8125689484783219e-05  1.6450697956711754e-05  1.4708248547800297e-05  1.2963748104852296e-05  1.1262095253180929e-05  9.6396596560747477e-06  8.1263198359281750e-06  6.7449594175612587e-06  5.5107799597613688e-06  4.4310987130855390e-06  3.5056028090497279e-06  2.7263956320833702e-06  2.0755796507790926e-06  1.5128267726007300e-06  9.2905436836540534e-07  0.0000000000000000e+00  6.0000000000000002e-05  5.7006100135252320e-05  5.5915661218802878e-05  5.5551028295370323e-05  5.5399474410811345e-05  5.5291950392659289e-05  5.5164867276134686e-05  5.4985637584510154e-05  5.4729526996781619e-05  5.4373094586334705e-05  5.3893283982852547e-05  5.3268640445326586e-05  5.2481386970717237e-05  5.1519733773441516e-05  5.0379938488690325e-05  4.9067501430903177e-05  4.7595292324694779e-05  4.5962310623515528e-05  4.3952155984860528e-05  4.0273636078219886e-05  3.5005042177817114e-05  3.0109296519204006e-05  2.6196022214080349e-05  2.3137652504448933e-05  2.0731847432282742e-05  1.8813421070821298e-05  1.7256833250086309e-05  1.5972957083479691e-05  1.4922203126695631e-05  1.4177364324703503e-05  1.4132246491793500e-05  1.6079140265487437e-05  2.0130410336861371e-05  2.0683338822658056e-05  1.9720942364303664e-05  1.8228976466579245e-05  1.6543170907815939e-05  1.4791200256958878e-05  1.3037552166048257e-05  1.1326966476084946e-05  9.6958910139300126e-06  8.1743443315818530e-06  6.7853486012576933e-06  5.5442170524714871e-06  4.4583415518775132e-06  3.5274447096232330e-06  2.7436299418490946e-06  2.0889719108357608e-06  1.5230762382286331e-06  9.3646306705709501e-07  0.0000000000000000e+00  6.0000000000000002e-05  5.7219758533498974e-05  5.6173961346265125e-05  5.5822684808546385e-05  5.5675241509832604e-05  5.5568857770152576e-05  5.5441866492681805e-05  5.5262234929666494e-05  5.5005340017606694e-05  5.4647701103635983e-05  5.4166167416636330e-05  5.3539171746534282e-05  5.2748826206616059e-05  5.1783247292935988e-05  5.0638632081144172e-05  4.9320483956921435e-05  4.7841908628214327e-05  4.6203732085207883e-05  4.4205061963612207e-05  4.0718558160143388e-05  3.5705959525801721e-05  3.0925523039474599e-05  2.7022578158580791e-05  2.3938695075996834e-05  2.1497505027975431e-05  1.9542491999082002e-05  1.7950648277336556e-05  1.6632703465519322e-05  1.5546757352621910e-05  1.4759339149070861e-05  1.4647551492628900e-05  1.6461193541259110e-05  2.0357194636344499e-05  2.0836488234211396e-05  1.9841432944446297e-05  1.8333193449467991e-05  1.6636266187310534e-05  1.4874648175186130e-05  1.3111782157913262e-05  1.1392210584079094e-05  9.7524480771499611e-06  8.2226503335194804e-06  6.8259777650561990e-06  5.5778556581052458e-06  4.4857509604898132e-06  3.5494221006607793e-06  2.7609726568749751e-06  2.1024491282649234e-06  1.5333872964819769e-06  9.4387678386858838e-07  0.0000000000000000e+00  6.0000000000000002e-05  5.7428502160828558e-05  5.6431676835897064e-05  5.6095108812502307e-05  5.5952203453877561e-05  5.5847094718465821e-05  5.5720237168080390e-05  5.5540215729414523e-05  5.5282538240858896e-05  5.4923690209880287e-05  5.4440427942615650e-05  5.3811071806009642e-05  5.3017622618638393e-05  5.2048102655158083e-05  5.0898648127591052e-05  4.9574766625405054e-05  4.8089812335699202e-05  4.6446544585837690e-05  4.4460962407854505e-05  4.1150245436821153e-05  3.6375288312380761e-05  3.1721168504406890e-05  2.7843510488809981e-05  2.4744700781009958e-05  2.2275092430937432e-05  2.0288018636110070e-05  1.8663803583049787e-05  1.7313512483144987e-05  1.6193143042147848e-05  1.5362863388948504e-05  1.5182904817203756e-05  1.6862446787071446e-05  2.0596382500742235e-05  2.0994091045050516e-05  1.9963710905410421e-05  1.8438331362774712e-05  1.6729982811944667e-05  1.4958593686808600e-05  1.3186440023884654e-05  1.1457829510961068e-05  9.8093325937899220e-06  8.2712393556507198e-06  6.8668481847944842e-06  5.6116968280049305e-06  4.5133277870934808e-06  3.5715356515918870e-06  2.7784242928313078e-06  2.1160117011804499e-06  1.5437604287610493e-06  9.5129868369460809e-07  0.0000000000000000e+00  6.0000000000000002e-05  5.7632664038545552e-05  5.6688889015502141e-05  5.6368330489736739e-05  5.6230374539193376e-05  5.6126670543663595e-05  5.5999987038426534e-05  5.5819587230645270e-05  5.5561128765513177e-05  5.5201068961816762e-05  5.4716072603900881e-05  5.4084347654120104e-05  5.3287783212636388e-05  5.2314306820509240e-05  5.1159993504548611e-05  4.9830356086937025e-05  4.8339008861565960e-05  4.6690746105089890e-05  4.4719644904158724e-05  4.1570844825389228e-05  3.7017011755147475e-05  3.2497539129836814e-05  2.8659121344545558e-05  2.5555926328987890e-05  2.3065039760814047e-05  2.1050616194421029e-05  1.9397063248448499e-05  1.8016256578642164e-05  1.6862305403238525e-05  1.5988917310740158e-05  1.5739227635612738e-05  1.7283097033965959e-05  2.0847731635970756e-05  2.1156030162276335e-05  2.0087736388446087e-05  1.8544379491382553e-05  1.6824319288062698e-05  1.5043038022841164e-05  1.3261527668953786e-05  1.1523825191549072e-05  9.8665463286062611e-06  8.3201129362363651e-06  6.9079611649716001e-06  5.6457416445122303e-06  4.5410729116956556e-06  3.5937860634100463e-06  2.7959853964729734e-06  2.1296600614992188e-06  1.5541961745329101e-06  9.5873205039655545e-07  0.0000000000000000e+00  6.0000000000000002e-05  5.7832597116762927e-05  5.6945687556310976e-05  5.6642382689542826e-05  5.6509769926973905e-05  5.6407594846755082e-05  5.6281123953194902e-05  5.6100356734498951e-05  5.5841118724024253e-05  5.5479844440759954e-05  5.4993108462874797e-05  5.4359006336437850e-05  5.3559315006308730e-05  5.2581866758620305e-05  5.1422675095586784e-05  5.0087258992840639e-05  4.8589503570580158e-05  4.6936333768526610e-05  4.4980917828640821e-05  4.1982243024810446e-05  3.7634830358473630e-05  3.3256222999513035e-05  2.9469969866233994e-05  2.6372810591253720e-05  2.3867912823615463e-05  2.1831008436001929e-05  2.0151283238052099e-05  1.8741889214284131e-05  1.7555262997676714e-05  1.6638545153553961e-05  1.6317476679821808e-05  1.7723400383845632e-05  2.1110971030781552e-05  2.1322172526164626e-05  2.0213464484195197e-05  1.8651325543113867e-05  1.6919273634360049e-05  1.5127982268813979e-05  1.3337046962030750e-05  1.1590199561528795e-05  9.9240910613529282e-06  8.3692726350458266e-06  6.9493180350473186e-06  5.6799912166705894e-06  4.5689872414955875e-06  3.6161740638900947e-06  2.8136565407912573e-06  2.1433946696710061e-06  1.5646951239501863e-06  9.6618025784577936e-07  0.0000000000000000e+00  6.0000000000000002e-05  5.8028669607381818e-05  5.7202170127873736e-05  5.6917300811980879e-05  5.6790405607761391e-05  5.6689877513032418e-05  5.6563655872675466e-05  5.6382531596669513e-05  5.6122515283910879e-05  5.5760023755000660e-05  5.5271542604307914e-05  5.4635054917502872e-05  5.3832225033528631e-05  5.285078945310727